Equilibrated water simulation t= 100000.00000 step= 50000000
13800
    1SOL     OW    1   4.836   4.889   5.136
    1SOL    HW1    2   4.787   4.935   5.067
    1SOL    HW2    3   4.886   4.822   5.089
    2SOL     OW    4   0.661   0.367   0.804
    2SOL    HW1    5   0.642   0.459   0.787
    2SOL    HW2    6   0.650   0.356   0.898
    3SOL     OW    7   3.572   2.614   1.027
    3SOL    HW1    8   3.616   2.617   1.112
    3SOL    HW2    9   3.632   2.565   0.971
    4SOL     OW   10   4.394   3.400   4.699
    4SOL    HW1   11   4.332   3.345   4.652
    4SOL    HW2   12   4.386   3.374   4.791
    5SOL     OW   13   2.306   5.190   4.083
    5SOL    HW1   14   2.353   5.117   4.042
    5SOL    HW2   15   2.248   5.222   4.014
    6SOL     OW   16   2.101   3.910   3.030
    6SOL    HW1   17   2.143   3.961   2.961
    6SOL    HW2   18   2.021   3.958   3.050
    7SOL     OW   19   1.827   3.154   3.674
    7SOL    HW1   20   1.763   3.202   3.726
    7SOL    HW2   21   1.877   3.222   3.628
    8SOL     OW   22   1.032   2.266   4.694
    8SOL    HW1   23   1.066   2.191   4.645
    8SOL    HW2   24   1.049   2.341   4.637
    9SOL     OW   25   0.124   3.928   1.943
    9SOL    HW1   26   0.042   3.893   1.909
    9SOL    HW2   27   0.192   3.882   1.894
   10SOL     OW   28   2.757   0.547   3.141
   10SOL    HW1   29   2.769   0.621   3.200
   10SOL    HW2   30   2.709   0.482   3.194
   11SOL     OW   31   4.510   2.532   0.630
   11SOL    HW1   32   4.450   2.486   0.689
   11SOL    HW2   33   4.541   2.607   0.680
   12SOL     OW   34   1.887   1.387   2.882
   12SOL    HW1   35   1.843   1.463   2.845
   12SOL    HW2   36   1.964   1.375   2.827
   13SOL     OW   37   2.240   2.757   2.592
   13SOL    HW1   38   2.225   2.737   2.685
   13SOL    HW2   39   2.321   2.711   2.570
   14SOL     OW   40   4.584   1.123   0.893
   14SOL    HW1   41   4.657   1.081   0.939
   14SOL    HW2   42   4.625   1.180   0.829
   15SOL     OW   43   2.979   0.825   5.116
   15SOL    HW1   44   2.918   0.768   5.070
   15SOL    HW2   45   2.969   0.803   5.208
   16SOL     OW   46   2.935   2.793   0.078
   16SOL    HW1   47   2.986   2.864   0.116
   16SOL    HW2   48   3.000   2.733   0.041
   17SOL     OW   49   5.148   1.879   2.852
   17SOL    HW1   50   5.056   1.869   2.876
   17SOL    HW2   51   5.162   1.813   2.784
   18SOL     OW   52   4.320   4.914   0.127
   18SOL    HW1   53   4.262   4.930   0.052
   18SOL    HW2   54   4.267   4.937   0.203
   19SOL     OW   55   4.683   2.846   0.702
   19SOL    HW1   56   4.773   2.874   0.720
   19SOL    HW2   57   4.667   2.873   0.611
   20SOL     OW   58   4.424   4.094   2.673
   20SOL    HW1   59   4.450   4.185   2.663
   20SOL    HW2   60   4.453   4.051   2.593
   21SOL     OW   61   1.090   3.042   0.333
   21SOL    HW1   62   1.123   3.128   0.358
   21SOL    HW2   63   1.009   3.033   0.383
   22SOL     OW   64   2.049   0.232   1.823
   22SOL    HW1   65   2.017   0.319   1.844
   22SOL    HW2   66   2.033   0.221   1.730
   23SOL     OW   67   0.667   1.839   3.751
   23SOL    HW1   68   0.688   1.932   3.746
   23SOL    HW2   69   0.580   1.832   3.712
   24SOL     OW   70   3.622   0.685   0.511
   24SOL    HW1   71   3.689   0.753   0.499
   24SOL    HW2   72   3.627   0.663   0.604
   25SOL     OW   73   2.420   3.633   3.539
   25SOL    HW1   74   2.355   3.576   3.579
   25SOL    HW2   75   2.487   3.574   3.506
   26SOL     OW   76   3.463   4.813   1.886
   26SOL    HW1   77   3.513   4.879   1.837
   26SOL    HW2   78   3.505   4.730   1.862
   27SOL     OW   79   2.978   3.978   1.323
   27SOL    HW1   80   2.892   4.018   1.335
   27SOL    HW2   81   3.031   4.046   1.282
   28SOL     OW   82   1.547   3.022   2.258
   28SOL    HW1   83   1.538   3.117   2.254
   28SOL    HW2   84   1.601   3.006   2.335
   29SOL     OW   85   1.769   4.856   1.480
   29SOL    HW1   86   1.734   4.799   1.548
   29SOL    HW2   87   1.784   4.799   1.405
   30SOL     OW   88   2.051   2.102  -0.005
   30SOL    HW1   89   1.995   2.141   0.062
   30SOL    HW2   90   2.116   2.051   0.045
   31SOL     OW   91   1.002   2.598   3.524
   31SOL    HW1   92   1.071   2.593   3.457
   31SOL    HW2   93   1.045   2.568   3.604
   32SOL     OW   94   2.151   1.529   2.047
   32SOL    HW1   95   2.149   1.436   2.024
   32SOL    HW2   96   2.071   1.565   2.008
   33SOL     OW   97   0.502   1.275   1.844
   33SOL    HW1   98   0.419   1.245   1.880
   33SOL    HW2   99   0.568   1.236   1.902
   34SOL     OW  100   0.282   5.138   3.934
   34SOL    HW1  101   0.378   5.140   3.939
   34SOL    HW2  102   0.255   5.227   3.958
   35SOL     OW  103   4.107   2.923   4.896
   35SOL    HW1  104   4.013   2.930   4.912
   35SOL    HW2  105   4.114   2.885   4.809
   36SOL     OW  106   0.839   2.811   1.350
   36SOL    HW1  107   0.898   2.882   1.375
   36SOL    HW2  108   0.824   2.825   1.257
   37SOL     OW  109   3.561   0.449   1.886
   37SOL    HW1  110   3.520   0.384   1.943
   37SOL    HW2  111   3.525   0.431   1.799
   38SOL     OW  112   0.102   2.154   2.796
   38SOL    HW1  113   0.115   2.085   2.861
   38SOL    HW2  114   0.028   2.124   2.743
   39SOL     OW  115   3.505   0.862   3.565
   39SOL    HW1  116   3.425   0.897   3.527
   39SOL    HW2  117   3.575   0.915   3.527
   40SOL     OW  118   4.173   4.074   0.785
   40SOL    HW1  119   4.223   3.993   0.782
   40SOL    HW2  120   4.233   4.141   0.753
   41SOL     OW  121   3.616   2.026   4.253
   41SOL    HW1  122   3.642   1.974   4.329
   41SOL    HW2  123   3.675   2.101   4.254
   42SOL     OW  124   0.816   2.091   2.029
   42SOL    HW1  125   0.824   1.999   2.003
   42SOL    HW2  126   0.740   2.093   2.087
   43SOL     OW  127   0.302   4.763   4.981
   43SOL    HW1  128   0.294   4.667   4.974
   43SOL    HW2  129   0.217   4.791   5.015
   44SOL     OW  130   4.920   0.976   3.718
   44SOL    HW1  131   4.926   1.038   3.790
   44SOL    HW2  132   4.841   1.002   3.670
   45SOL     OW  133   3.752   1.405   3.133
   45SOL    HW1  134   3.695   1.431   3.206
   45SOL    HW2  135   3.701   1.338   3.086
   46SOL     OW  136   2.641   2.745   2.233
   46SOL    HW1  137   2.584   2.690   2.179
   46SOL    HW2  138   2.709   2.685   2.265
   47SOL     OW  139   4.531   3.710   2.142
   47SOL    HW1  140   4.614   3.676   2.175
   47SOL    HW2  141   4.557   3.775   2.076
   48SOL     OW  142   3.108   2.654   2.138
   48SOL    HW1  143   3.197   2.688   2.152
   48SOL    HW2  144   3.053   2.732   2.136
   49SOL     OW  145   0.162   1.502   1.324
   49SOL    HW1  146   0.134   1.543   1.406
   49SOL    HW2  147   0.127   1.559   1.256
   50SOL     OW  148   1.148   5.065   2.420
   50SOL    HW1  149   1.242   5.068   2.402
   50SOL    HW2  150   1.120   5.157   2.415
   51SOL     OW  151   3.423   4.324   2.864
   51SOL    HW1  152   3.439   4.261   2.794
   51SOL    HW2  153   3.327   4.333   2.866
   52SOL     OW  154   3.381   5.190   3.630
   52SOL    HW1  155   3.383   5.218   3.721
   52SOL    HW2  156   3.423   5.104   3.630
   53SOL     OW  157   2.558   2.680   1.389
   53SOL    HW1  158   2.490   2.689   1.455
   53SOL    HW2  159   2.639   2.706   1.435
   54SOL     OW  160   2.979   3.442   1.093
   54SOL    HW1  161   2.934   3.479   1.017
   54SOL    HW2  162   3.058   3.496   1.103
   55SOL     OW  163   5.146   0.026   4.004
   55SOL    HW1  164   5.170   0.099   3.946
   55SOL    HW2  165   5.107  -0.039   3.945
   56SOL     OW  166   2.710   4.395   0.765
   56SOL    HW1  167   2.748   4.359   0.685
   56SOL    HW2  168   2.638   4.336   0.787
   57SOL     OW  169   1.577   1.858   1.858
   57SOL    HW1  170   1.577   1.836   1.765
   57SOL    HW2  171   1.655   1.912   1.870
   58SOL     OW  172   1.968   3.413   3.658
   58SOL    HW1  173   2.016   3.488   3.622
   58SOL    HW2  174   1.924   3.448   3.735
   59SOL     OW  175   1.900   2.155   4.631
   59SOL    HW1  176   1.835   2.188   4.694
   59SOL    HW2  177   1.948   2.233   4.603
   60SOL     OW  178   0.359   2.692   1.415
   60SOL    HW1  179   0.440   2.741   1.428
   60SOL    HW2  180   0.295   2.737   1.471
   61SOL     OW  181   1.734   1.406   0.068
   61SOL    HW1  182   1.717   1.499   0.086
   61SOL    HW2  183   1.681   1.387  -0.010
   62SOL     OW  184   0.707   0.530   3.801
   62SOL    HW1  185   0.644   0.579   3.854
   62SOL    HW2  186   0.787   0.529   3.853
   63SOL     OW  187   0.392   3.628   3.348
   63SOL    HW1  188   0.325   3.695   3.337
   63SOL    HW2  189   0.462   3.654   3.287
   64SOL     OW  190   1.013   3.240   2.913
   64SOL    HW1  191   1.025   3.332   2.935
   64SOL    HW2  192   0.966   3.203   2.989
   65SOL     OW  193   2.145   2.328   1.854
   65SOL    HW1  194   2.137   2.287   1.768
   65SOL    HW2  195   2.178   2.416   1.836
   66SOL     OW  196   0.583   0.295   1.059
   66SOL    HW1  197   0.653   0.275   1.121
   66SOL    HW2  198   0.507   0.313   1.114
   67SOL     OW  199   2.978   0.123   2.476
   67SOL    HW1  200   2.930   0.200   2.447
   67SOL    HW2  201   2.957   0.056   2.411
   68SOL     OW  202   1.021   0.419   3.683
   68SOL    HW1  203   0.990   0.450   3.768
   68SOL    HW2  204   1.096   0.363   3.704
   69SOL     OW  205   1.392   2.274   4.122
   69SOL    HW1  206   1.414   2.362   4.152
   69SOL    HW2  207   1.385   2.282   4.027
   70SOL     OW  208   0.524   2.520   3.313
   70SOL    HW1  209   0.550   2.508   3.405
   70SOL    HW2  210   0.595   2.481   3.263
   71SOL     OW  211   3.426   1.938   2.920
   71SOL    HW1  212   3.494   2.002   2.898
   71SOL    HW2  213   3.432   1.872   2.851
   72SOL     OW  214   3.036   2.925   1.559
   72SOL    HW1  215   3.043   2.874   1.640
   72SOL    HW2  216   3.062   2.864   1.490
   73SOL     OW  217   2.942   2.037   2.605
   73SOL    HW1  218   2.965   1.972   2.671
   73SOL    HW2  219   2.857   2.009   2.572
   74SOL     OW  220   2.081   0.246   1.091
   74SOL    HW1  221   2.169   0.246   1.129
   74SOL    HW2  222   2.033   0.312   1.141
   75SOL     OW  223   1.904   3.113   4.927
   75SOL    HW1  224   1.830   3.172   4.909
   75SOL    HW2  225   1.976   3.172   4.951
   76SOL     OW  226   1.098   1.714   4.061
   76SOL    HW1  227   1.032   1.713   3.992
   76SOL    HW2  228   1.100   1.624   4.093
   77SOL     OW  229   4.632   0.708   0.007
   77SOL    HW1  230   4.547   0.671  -0.014
   77SOL    HW2  231   4.659   0.664   0.087
   78SOL     OW  232   1.255   0.436   1.573
   78SOL    HW1  233   1.309   0.414   1.497
   78SOL    HW2  234   1.216   0.353   1.600
   79SOL     OW  235   5.126   2.277   3.070
   79SOL    HW1  236   5.164   2.213   3.011
   79SOL    HW2  237   5.201   2.325   3.106
   80SOL     OW  238   4.157   3.991   4.623
   80SOL    HW1  239   4.079   3.939   4.602
   80SOL    HW2  240   4.214   3.930   4.670
   81SOL     OW  241   4.035   0.072   3.216
   81SOL    HW1  242   4.101   0.018   3.260
   81SOL    HW2  243   4.020   0.028   3.132
   82SOL     OW  244   1.771   1.064   3.972
   82SOL    HW1  245   1.678   1.050   3.958
   82SOL    HW2  246   1.791   1.018   4.054
   83SOL     OW  247   1.287   4.572   2.912
   83SOL    HW1  248   1.331   4.563   2.827
   83SOL    HW2  249   1.317   4.496   2.963
   84SOL     OW  250   4.851   3.473   3.026
   84SOL    HW1  251   4.782   3.433   3.079
   84SOL    HW2  252   4.880   3.548   3.078
   85SOL     OW  253   2.869   0.327   1.538
   85SOL    HW1  254   2.892   0.413   1.503
   85SOL    HW2  255   2.804   0.344   1.606
   86SOL     OW  256   3.762   3.952   4.357
   86SOL    HW1  257   3.802   4.039   4.360
   86SOL    HW2  258   3.669   3.969   4.346
   87SOL     OW  259   3.699   3.553   3.897
   87SOL    HW1  260   3.732   3.490   3.960
   87SOL    HW2  261   3.701   3.637   3.943
   88SOL     OW  262   4.546   0.518   4.763
   88SOL    HW1  263   4.467   0.547   4.717
   88SOL    HW2  264   4.598   0.598   4.774
   89SOL     OW  265   0.746   2.044   4.142
   89SOL    HW1  266   0.689   2.019   4.214
   89SOL    HW2  267   0.743   1.970   4.081
   90SOL     OW  268   1.689   1.800   3.722
   90SOL    HW1  269   1.619   1.769   3.663
   90SOL    HW2  270   1.724   1.877   3.679
   91SOL     OW  271   3.296   0.423   3.514
   91SOL    HW1  272   3.209   0.462   3.525
   91SOL    HW2  273   3.292   0.378   3.430
   92SOL     OW  274   1.572   2.088   1.513
   92SOL    HW1  275   1.642   2.144   1.548
   92SOL    HW2  276   1.578   2.008   1.566
   93SOL     OW  277   1.159   2.625   2.606
   93SOL    HW1  278   1.097   2.626   2.679
   93SOL    HW2  279   1.166   2.533   2.581
   94SOL     OW  280   1.540   2.810   0.399
   94SOL    HW1  281   1.537   2.881   0.335
   94SOL    HW2  282   1.627   2.816   0.439
   95SOL     OW  283   3.739   0.162   2.197
   95SOL    HW1  284   3.733   0.092   2.262
   95SOL    HW2  285   3.801   0.225   2.235
   96SOL     OW  286   1.886   1.354   1.299
   96SOL    HW1  287   1.921   1.431   1.344
   96SOL    HW2  288   1.792   1.370   1.294
   97SOL     OW  289   0.730   0.936   0.732
   97SOL    HW1  290   0.725   0.989   0.653
   97SOL    HW2  291   0.803   0.877   0.718
   98SOL     OW  292   4.201   3.276   1.713
   98SOL    HW1  293   4.271   3.263   1.777
   98SOL    HW2  294   4.189   3.190   1.673
   99SOL     OW  295   3.291   1.701   1.684
   99SOL    HW1  296   3.365   1.646   1.655
   99SOL    HW2  297   3.224   1.687   1.618
  100SOL     OW  298   2.497   4.379   2.778
  100SOL    HW1  299   2.528   4.395   2.689
  100SOL    HW2  300   2.549   4.305   2.809
  101SOL     OW  301   3.170   4.457   2.389
  101SOL    HW1  302   3.245   4.431   2.444
  101SOL    HW2  303   3.145   4.543   2.423
  102SOL     OW  304   2.965   1.811   1.634
  102SOL    HW1  305   2.968   1.907   1.637
  102SOL    HW2  306   3.010   1.788   1.553
  103SOL     OW  307   3.654   1.498   1.915
  103SOL    HW1  308   3.618   1.539   1.836
  103SOL    HW2  309   3.661   1.570   1.978
  104SOL     OW  310   4.569   1.282   3.489
  104SOL    HW1  311   4.480   1.253   3.509
  104SOL    HW2  312   4.600   1.221   3.423
  105SOL     OW  313   3.492   1.068   5.166
  105SOL    HW1  314   3.438   1.140   5.196
  105SOL    HW2  315   3.434   1.015   5.111
  106SOL     OW  316   4.454   0.223   1.046
  106SOL    HW1  317   4.534   0.257   1.087
  106SOL    HW2  318   4.463   0.244   0.954
  107SOL     OW  319   3.114   0.862   4.540
  107SOL    HW1  320   3.130   0.881   4.633
  107SOL    HW2  321   3.119   0.947   4.497
  108SOL     OW  322   3.122   4.152   0.046
  108SOL    HW1  323   3.049   4.149   0.108
  108SOL    HW2  324   3.144   4.245   0.040
  109SOL     OW  325   1.564   0.527   4.516
  109SOL    HW1  326   1.581   0.460   4.582
  109SOL    HW2  327   1.509   0.591   4.561
  110SOL     OW  328   1.405   0.385   2.207
  110SOL    HW1  329   1.432   0.340   2.286
  110SOL    HW2  330   1.309   0.381   2.208
  111SOL     OW  331   2.321   2.207   2.099
  111SOL    HW1  332   2.414   2.230   2.092
  111SOL    HW2  333   2.284   2.231   2.014
  112SOL     OW  334   3.348   3.450   3.602
  112SOL    HW1  335   3.369   3.454   3.696
  112SOL    HW2  336   3.253   3.440   3.600
  113SOL     OW  337   5.120   5.197   2.357
  113SOL    HW1  338   5.039   5.157   2.326
  113SOL    HW2  339   5.129   5.165   2.447
  114SOL     OW  340   1.511   3.654   3.918
  114SOL    HW1  341   1.469   3.729   3.960
  114SOL    HW2  342   1.591   3.639   3.969
  115SOL     OW  343   2.116   0.181   2.727
  115SOL    HW1  344   2.039   0.139   2.765
  115SOL    HW2  345   2.127   0.261   2.779
  116SOL     OW  346   2.217   4.522   0.397
  116SOL    HW1  347   2.220   4.594   0.334
  116SOL    HW2  348   2.164   4.556   0.470
  117SOL     OW  349   4.381   1.435   4.524
  117SOL    HW1  350   4.319   1.464   4.591
  117SOL    HW2  351   4.361   1.342   4.512
  118SOL     OW  352   0.522   5.097   0.749
  118SOL    HW1  353   0.606   5.097   0.795
  118SOL    HW2  354   0.458   5.122   0.815
  119SOL     OW  355   4.107   0.454   1.323
  119SOL    HW1  356   4.148   0.419   1.244
  119SOL    HW2  357   4.014   0.457   1.302
  120SOL     OW  358   0.058   1.789   3.976
  120SOL    HW1  359   0.010   1.762   4.054
  120SOL    HW2  360   0.000   1.852   3.932
  121SOL     OW  361   3.663   3.579   1.698
  121SOL    HW1  362   3.750   3.590   1.735
  121SOL    HW2  363   3.657   3.486   1.677
  122SOL     OW  364   0.089   0.421   3.631
  122SOL    HW1  365   0.071   0.393   3.542
  122SOL    HW2  366   0.155   0.490   3.622
  123SOL     OW  367   1.821   3.571   1.424
  123SOL    HW1  368   1.824   3.485   1.382
  123SOL    HW2  369   1.806   3.553   1.516
  124SOL     OW  370   4.955   5.070   3.074
  124SOL    HW1  371   4.995   5.146   3.116
  124SOL    HW2  372   5.025   5.005   3.068
  125SOL     OW  373   0.387   2.599   1.756
  125SOL    HW1  374   0.336   2.520   1.740
  125SOL    HW2  375   0.343   2.668   1.707
  126SOL     OW  376   3.969   2.803   4.569
  126SOL    HW1  377   4.014   2.749   4.503
  126SOL    HW2  378   3.974   2.751   4.649
  127SOL     OW  379   1.793   1.519   1.839
  127SOL    HW1  380   1.736   1.494   1.911
  127SOL    HW2  381   1.819   1.436   1.799
  128SOL     OW  382   1.290   4.677   4.989
  128SOL    HW1  383   1.346   4.707   5.061
  128SOL    HW2  384   1.211   4.730   4.997
  129SOL     OW  385   3.907   2.504   1.122
  129SOL    HW1  386   3.846   2.434   1.144
  129SOL    HW2  387   3.927   2.545   1.206
  130SOL     OW  388   2.432   2.781   5.049
  130SOL    HW1  389   2.458   2.692   5.025
  130SOL    HW2  390   2.497   2.807   5.114
  131SOL     OW  391   3.698   1.695   2.108
  131SOL    HW1  392   3.766   1.758   2.086
  131SOL    HW2  393   3.620   1.747   2.126
  132SOL     OW  394   0.939   3.864   2.644
  132SOL    HW1  395   0.917   3.925   2.715
  132SOL    HW2  396   0.856   3.821   2.623
  133SOL     OW  397   3.901   2.353   2.808
  133SOL    HW1  398   3.910   2.261   2.781
  133SOL    HW2  399   3.961   2.401   2.751
  134SOL     OW  400   3.687   1.439   1.443
  134SOL    HW1  401   3.600   1.438   1.403
  134SOL    HW2  402   3.744   1.401   1.377
  135SOL     OW  403   2.594   3.332   2.212
  135SOL    HW1  404   2.512   3.300   2.250
  135SOL    HW2  405   2.663   3.297   2.269
  136SOL     OW  406   3.391   3.385   4.181
  136SOL    HW1  407   3.338   3.423   4.251
  136SOL    HW2  408   3.479   3.418   4.197
  137SOL     OW  409   4.298   4.954   4.779
  137SOL    HW1  410   4.236   4.934   4.709
  137SOL    HW2  411   4.328   5.043   4.761
  138SOL     OW  412   0.602   3.268   2.885
  138SOL    HW1  413   0.641   3.181   2.874
  138SOL    HW2  414   0.554   3.283   2.804
  139SOL     OW  415   1.422   2.389   3.855
  139SOL    HW1  416   1.487   2.449   3.891
  139SOL    HW2  417   1.363   2.445   3.804
  140SOL     OW  418   2.638   3.015   1.328
  140SOL    HW1  419   2.718   3.048   1.369
  140SOL    HW2  420   2.573   3.017   1.398
  141SOL     OW  421   4.558   1.437   1.757
  141SOL    HW1  422   4.469   1.402   1.761
  141SOL    HW2  423   4.613   1.364   1.729
  142SOL     OW  424   4.044   2.820   3.921
  142SOL    HW1  425   4.030   2.763   3.845
  142SOL    HW2  426   4.139   2.823   3.932
  143SOL     OW  427   1.362   3.349   1.565
  143SOL    HW1  428   1.387   3.256   1.570
  143SOL    HW2  429   1.320   3.358   1.480
  144SOL     OW  430   3.408   0.834   0.869
  144SOL    HW1  431   3.317   0.810   0.848
  144SOL    HW2  432   3.439   0.879   0.790
  145SOL     OW  433   3.802   2.589   2.409
  145SOL    HW1  434   3.824   2.635   2.328
  145SOL    HW2  435   3.725   2.636   2.443
  146SOL     OW  436   1.410   4.326   3.618
  146SOL    HW1  437   1.323   4.300   3.650
  146SOL    HW2  438   1.463   4.336   3.697
  147SOL     OW  439   2.382   4.065   2.600
  147SOL    HW1  440   2.459   4.115   2.575
  147SOL    HW2  441   2.398   3.977   2.566
  148SOL     OW  442   3.308   5.030   4.515
  148SOL    HW1  443   3.228   5.030   4.463
  148SOL    HW2  444   3.281   5.065   4.600
  149SOL     OW  445   4.395   4.192   0.657
  149SOL    HW1  446   4.411   4.285   0.639
  149SOL    HW2  447   4.444   4.174   0.736
  150SOL     OW  448   4.735   0.948   0.605
  150SOL    HW1  449   4.656   0.970   0.655
  150SOL    HW2  450   4.702   0.918   0.521
  151SOL     OW  451   2.209   3.842   4.245
  151SOL    HW1  452   2.232   3.882   4.329
  151SOL    HW2  453   2.114   3.837   4.247
  152SOL     OW  454   1.193   3.921   3.881
  152SOL    HW1  455   1.286   3.936   3.868
  152SOL    HW2  456   1.157   4.008   3.899
  153SOL     OW  457   2.269   4.486   3.403
  153SOL    HW1  458   2.317   4.440   3.335
  153SOL    HW2  459   2.209   4.420   3.439
  154SOL     OW  460   2.617   1.529   3.536
  154SOL    HW1  461   2.610   1.624   3.547
  154SOL    HW2  462   2.550   1.509   3.470
  155SOL     OW  463   3.533   3.645   2.562
  155SOL    HW1  464   3.507   3.596   2.483
  155SOL    HW2  465   3.506   3.589   2.635
  156SOL     OW  466   3.124   1.670   1.463
  156SOL    HW1  467   3.106   1.727   1.388
  156SOL    HW2  468   3.066   1.594   1.450
  157SOL     OW  469   2.201   1.583   3.142
  157SOL    HW1  470   2.199   1.604   3.235
  157SOL    HW2  471   2.111   1.556   3.121
  158SOL     OW  472   3.494   4.908   4.852
  158SOL    HW1  473   3.442   4.980   4.817
  158SOL    HW2  474   3.491   4.841   4.785
  159SOL     OW  475   2.262   0.760   0.580
  159SOL    HW1  476   2.230   0.785   0.494
  159SOL    HW2  477   2.228   0.828   0.639
  160SOL     OW  478   2.776   3.427   1.606
  160SOL    HW1  479   2.761   3.475   1.524
  160SOL    HW2  480   2.851   3.370   1.587
  161SOL     OW  481   2.251   2.327   4.078
  161SOL    HW1  482   2.206   2.412   4.080
  161SOL    HW2  483   2.266   2.305   4.169
  162SOL     OW  484   3.201   2.863   5.006
  162SOL    HW1  485   3.160   2.791   4.959
  162SOL    HW2  486   3.248   2.912   4.939
  163SOL     OW  487   2.159   4.890   4.525
  163SOL    HW1  488   2.231   4.836   4.493
  163SOL    HW2  489   2.135   4.945   4.450
  164SOL     OW  490   2.944   1.718   5.115
  164SOL    HW1  491   2.912   1.802   5.148
  164SOL    HW2  492   2.865   1.673   5.085
  165SOL     OW  493   0.214   0.081   0.165
  165SOL    HW1  494   0.135   0.125   0.195
  165SOL    HW2  495   0.271   0.079   0.242
  166SOL     OW  496   4.365   0.597   1.335
  166SOL    HW1  497   4.311   0.668   1.370
  166SOL    HW2  498   4.317   0.564   1.260
  167SOL     OW  499   0.298   2.153   0.704
  167SOL    HW1  500   0.247   2.234   0.712
  167SOL    HW2  501   0.387   2.179   0.727
  168SOL     OW  502   0.758   4.686   2.848
  168SOL    HW1  503   0.729   4.720   2.764
  168SOL    HW2  504   0.767   4.591   2.834
  169SOL     OW  505   5.165   0.762   2.016
  169SOL    HW1  506   5.093   0.786   1.958
  169SOL    HW2  507   5.173   0.835   2.077
  170SOL     OW  508   3.539   1.386   0.544
  170SOL    HW1  509   3.611   1.335   0.581
  170SOL    HW2  510   3.578   1.433   0.470
  171SOL     OW  511   0.090   3.016   4.232
  171SOL    HW1  512   0.183   3.004   4.253
  171SOL    HW2  513   0.048   2.937   4.265
  172SOL     OW  514   5.057   3.773   0.228
  172SOL    HW1  515   4.968   3.778   0.193
  172SOL    HW2  516   5.046   3.778   0.323
  173SOL     OW  517   0.256   2.667   2.033
  173SOL    HW1  518   0.290   2.659   1.944
  173SOL    HW2  519   0.217   2.581   2.051
  174SOL     OW  520   1.781   2.960   1.720
  174SOL    HW1  521   1.868   2.998   1.735
  174SOL    HW2  522   1.766   2.972   1.626
  175SOL     OW  523   3.478   0.032   0.966
  175SOL    HW1  524   3.415   0.004   0.900
  175SOL    HW2  525   3.425   0.069   1.036
  176SOL     OW  526   3.568   4.755   3.711
  176SOL    HW1  527   3.553   4.662   3.696
  176SOL    HW2  528   3.640   4.758   3.774
  177SOL     OW  529   4.976   4.276   3.971
  177SOL    HW1  530   4.909   4.261   3.904
  177SOL    HW2  531   5.011   4.363   3.952
  178SOL     OW  532   2.469   2.484   4.949
  178SOL    HW1  533   2.547   2.514   4.903
  178SOL    HW2  534   2.493   2.397   4.983
  179SOL     OW  535   1.916   1.320   2.546
  179SOL    HW1  536   1.987   1.322   2.610
  179SOL    HW2  537   1.941   1.384   2.480
  180SOL     OW  538   2.326   3.153   1.965
  180SOL    HW1  539   2.367   3.096   2.030
  180SOL    HW2  540   2.232   3.144   1.981
  181SOL     OW  541   3.085   1.320   3.261
  181SOL    HW1  542   3.076   1.262   3.185
  181SOL    HW2  543   3.011   1.380   3.254
  182SOL     OW  544   4.996   0.321   0.996
  182SOL    HW1  545   4.986   0.416   1.002
  182SOL    HW2  546   4.959   0.287   1.077
  183SOL     OW  547   0.519   3.726   0.577
  183SOL    HW1  548   0.510   3.821   0.572
  183SOL    HW2  549   0.476   3.702   0.659
  184SOL     OW  550   1.859   3.841   0.992
  184SOL    HW1  551   1.786   3.779   0.983
  184SOL    HW2  552   1.866   3.855   1.087
  185SOL     OW  553   0.049   2.143   1.186
  185SOL    HW1  554   0.057   2.213   1.121
  185SOL    HW2  555   0.011   2.187   1.263
  186SOL     OW  556   4.158   1.694   4.455
  186SOL    HW1  557   4.111   1.767   4.417
  186SOL    HW2  558   4.250   1.723   4.456
  187SOL     OW  559   0.462   1.735   4.450
  187SOL    HW1  560   0.389   1.796   4.440
  187SOL    HW2  561   0.430   1.669   4.511
  188SOL     OW  562   5.020   4.108   3.724
  188SOL    HW1  563   4.927   4.126   3.727
  188SOL    HW2  564   5.061   4.191   3.700
  189SOL     OW  565   1.466   3.713   2.539
  189SOL    HW1  566   1.476   3.808   2.538
  189SOL    HW2  567   1.417   3.695   2.619
  190SOL     OW  568   1.995   4.276   0.711
  190SOL    HW1  569   1.934   4.221   0.761
  190SOL    HW2  570   2.066   4.295   0.771
  191SOL     OW  571   4.352   2.201   4.337
  191SOL    HW1  572   4.295   2.208   4.413
  191SOL    HW2  573   4.326   2.274   4.281
  192SOL     OW  574   3.042   4.485   3.849
  192SOL    HW1  575   3.121   4.434   3.867
  192SOL    HW2  576   3.061   4.572   3.885
  193SOL     OW  577   0.851   1.677   2.946
  193SOL    HW1  578   0.785   1.609   2.963
  193SOL    HW2  579   0.865   1.673   2.851
  194SOL     OW  580   4.046   1.423   3.132
  194SOL    HW1  581   3.954   1.446   3.142
  194SOL    HW2  582   4.086   1.501   3.094
  195SOL     OW  583   0.055   0.590   4.370
  195SOL    HW1  584   0.003   0.663   4.403
  195SOL    HW2  585   0.071   0.535   4.446
  196SOL     OW  586   0.062   0.138   4.538
  196SOL    HW1  587  -0.008   0.108   4.596
  196SOL    HW2  588   0.061   0.233   4.546
  197SOL     OW  589   3.359   4.271   3.261
  197SOL    HW1  590   3.271   4.306   3.248
  197SOL    HW2  591   3.418   4.343   3.235
  198SOL     OW  592   0.429   1.363   0.617
  198SOL    HW1  593   0.382   1.287   0.651
  198SOL    HW2  594   0.387   1.438   0.659
  199SOL     OW  595   0.844   2.599   4.808
  199SOL    HW1  596   0.811   2.596   4.718
  199SOL    HW2  597   0.869   2.509   4.827
  200SOL     OW  598   2.028   3.125   1.933
  200SOL    HW1  599   2.003   3.198   1.877
  200SOL    HW2  600   1.951   3.109   1.987
  201SOL     OW  601   5.045   0.168   3.597
  201SOL    HW1  602   4.961   0.141   3.633
  201SOL    HW2  603   5.042   0.263   3.596
  202SOL     OW  604   4.737   1.761   1.526
  202SOL    HW1  605   4.813   1.810   1.493
  202SOL    HW2  606   4.730   1.787   1.618
  203SOL     OW  607   2.788   2.388   3.112
  203SOL    HW1  608   2.787   2.483   3.107
  203SOL    HW2  609   2.768   2.359   3.023
  204SOL     OW  610   3.403   0.196   4.544
  204SOL    HW1  611   3.311   0.183   4.569
  204SOL    HW2  612   3.400   0.260   4.474
  205SOL     OW  613   1.120   3.003   4.845
  205SOL    HW1  614   1.147   2.961   4.927
  205SOL    HW2  615   1.027   3.025   4.860
  206SOL     OW  616   4.991   1.095   1.805
  206SOL    HW1  617   5.003   1.001   1.821
  206SOL    HW2  618   4.980   1.102   1.711
  207SOL     OW  619   2.613   0.779   0.436
  207SOL    HW1  620   2.589   0.761   0.345
  207SOL    HW2  621   2.541   0.744   0.487
  208SOL     OW  622   3.146   0.034   4.673
  208SOL    HW1  623   3.065  -0.014   4.690
  208SOL    HW2  624   3.137   0.114   4.726
  209SOL     OW  625   2.434   1.549   2.638
  209SOL    HW1  626   2.353   1.527   2.685
  209SOL    HW2  627   2.503   1.512   2.692
  210SOL     OW  628   4.933   4.843   4.244
  210SOL    HW1  629   4.906   4.836   4.153
  210SOL    HW2  630   4.855   4.877   4.289
  211SOL     OW  631   2.076   4.566   0.625
  211SOL    HW1  632   2.023   4.646   0.623
  211SOL    HW2  633   2.103   4.558   0.717
  212SOL     OW  634   2.302   3.114   0.149
  212SOL    HW1  635   2.303   3.026   0.188
  212SOL    HW2  636   2.334   3.171   0.218
  213SOL     OW  637   2.542   4.163   2.966
  213SOL    HW1  638   2.518   4.123   3.049
  213SOL    HW2  639   2.482   4.124   2.903
  214SOL     OW  640   4.349   0.989   1.008
  214SOL    HW1  641   4.416   1.029   0.954
  214SOL    HW2  642   4.368   1.020   1.097
  215SOL     OW  643   0.135   4.616   2.180
  215SOL    HW1  644   0.219   4.609   2.135
  215SOL    HW2  645   0.083   4.544   2.143
  216SOL     OW  646   5.190   5.133   3.495
  216SOL    HW1  647   5.118   5.191   3.521
  216SOL    HW2  648   5.264   5.192   3.480
  217SOL     OW  649   3.009   3.817   0.980
  217SOL    HW1  650   2.986   3.910   0.980
  217SOL    HW2  651   3.080   3.810   0.916
  218SOL     OW  652   3.968   2.062   3.663
  218SOL    HW1  653   3.995   2.055   3.571
  218SOL    HW2  654   3.936   2.152   3.671
  219SOL     OW  655   1.578   1.146   0.538
  219SOL    HW1  656   1.622   1.223   0.575
  219SOL    HW2  657   1.623   1.071   0.578
  220SOL     OW  658   1.807   2.055   2.403
  220SOL    HW1  659   1.736   2.049   2.467
  220SOL    HW2  660   1.800   2.145   2.368
  221SOL     OW  661   1.459   3.897   0.777
  221SOL    HW1  662   1.486   3.805   0.781
  221SOL    HW2  663   1.541   3.945   0.766
  222SOL     OW  664   0.187   0.321   2.304
  222SOL    HW1  665   0.268   0.304   2.256
  222SOL    HW2  666   0.118   0.302   2.241
  223SOL     OW  667   3.165   3.435   0.082
  223SOL    HW1  668   3.179   3.385   0.162
  223SOL    HW2  669   3.109   3.508   0.109
  224SOL     OW  670   3.138   4.483   2.975
  224SOL    HW1  671   3.139   4.459   3.068
  224SOL    HW2  672   3.142   4.578   2.975
  225SOL     OW  673   3.691   0.232   4.710
  225SOL    HW1  674   3.723   0.153   4.753
  225SOL    HW2  675   3.629   0.270   4.773
  226SOL     OW  676   0.498   4.454   4.677
  226SOL    HW1  677   0.501   4.499   4.593
  226SOL    HW2  678   0.497   4.361   4.654
  227SOL     OW  679   3.953   0.816   4.476
  227SOL    HW1  680   3.888   0.885   4.459
  227SOL    HW2  681   3.965   0.817   4.571
  228SOL     OW  682   1.792   2.504   1.128
  228SOL    HW1  683   1.704   2.477   1.154
  228SOL    HW2  684   1.846   2.426   1.142
  229SOL     OW  685   0.758   2.081   3.767
  229SOL    HW1  686   0.842   2.060   3.810
  229SOL    HW2  687   0.783   2.116   3.682
  230SOL     OW  688   2.075   2.560   3.105
  230SOL    HW1  689   1.992   2.521   3.081
  230SOL    HW2  690   2.141   2.505   3.062
  231SOL     OW  691   2.178   3.572   2.337
  231SOL    HW1  692   2.110   3.604   2.278
  231SOL    HW2  693   2.222   3.651   2.368
  232SOL     OW  694   2.102   1.640   2.640
  232SOL    HW1  695   2.143   1.647   2.726
  232SOL    HW2  696   2.147   1.705   2.586
  233SOL     OW  697   4.105   0.121   2.707
  233SOL    HW1  698   4.099   0.051   2.642
  233SOL    HW2  699   4.157   0.189   2.665
  234SOL     OW  700   2.295   2.874   2.083
  234SOL    HW1  701   2.339   2.864   2.168
  234SOL    HW2  702   2.219   2.928   2.103
  235SOL     OW  703   1.597   2.053   2.210
  235SOL    HW1  704   1.676   2.035   2.259
  235SOL    HW2  705   1.526   2.041   2.273
  236SOL     OW  706   1.000   2.148   4.165
  236SOL    HW1  707   0.908   2.125   4.158
  236SOL    HW2  708   1.044   2.086   4.105
  237SOL     OW  709   0.592   3.932   1.812
  237SOL    HW1  710   0.594   3.837   1.799
  237SOL    HW2  711   0.683   3.960   1.804
  238SOL     OW  712   1.384   3.225   0.105
  238SOL    HW1  713   1.465   3.258   0.142
  238SOL    HW2  714   1.315   3.263   0.160
  239SOL     OW  715   1.188   1.853   1.238
  239SOL    HW1  716   1.106   1.890   1.272
  239SOL    HW2  717   1.195   1.767   1.281
  240SOL     OW  718   0.584   1.324   4.350
  240SOL    HW1  719   0.607   1.336   4.442
  240SOL    HW2  720   0.529   1.399   4.328
  241SOL     OW  721   3.501   4.086   0.488
  241SOL    HW1  722   3.573   4.141   0.457
  241SOL    HW2  723   3.533   3.996   0.478
  242SOL     OW  724   5.056   0.570   2.580
  242SOL    HW1  725   5.127   0.578   2.645
  242SOL    HW2  726   5.092   0.609   2.501
  243SOL     OW  727   0.673   1.671   2.219
  243SOL    HW1  728   0.662   1.579   2.245
  243SOL    HW2  729   0.665   1.720   2.301
  244SOL     OW  730   0.036   4.965   0.174
  244SOL    HW1  731   0.120   4.921   0.164
  244SOL    HW2  732   0.045   5.016   0.255
  245SOL     OW  733   3.933   3.055   4.632
  245SOL    HW1  734   3.942   2.967   4.597
  245SOL    HW2  735   3.873   3.099   4.571
  246SOL     OW  736   0.969   3.631   0.734
  246SOL    HW1  737   1.008   3.717   0.714
  246SOL    HW2  738   0.925   3.606   0.652
  247SOL     OW  739   4.298   3.582   1.287
  247SOL    HW1  740   4.300   3.673   1.317
  247SOL    HW2  741   4.264   3.533   1.362
  248SOL     OW  742   2.791   1.257   2.007
  248SOL    HW1  743   2.858   1.306   1.961
  248SOL    HW2  744   2.708   1.289   1.971
  249SOL     OW  745   0.737   3.307   4.126
  249SOL    HW1  746   0.812   3.259   4.162
  249SOL    HW2  747   0.722   3.267   4.040
  250SOL     OW  748   3.219   1.645   5.137
  250SOL    HW1  749   3.129   1.678   5.146
  250SOL    HW2  750   3.273   1.713   5.177
  251SOL     OW  751   2.194   3.010   2.467
  251SOL    HW1  752   2.229   2.925   2.493
  251SOL    HW2  753   2.107   3.013   2.508
  252SOL     OW  754   4.058   4.338   3.510
  252SOL    HW1  755   4.145   4.366   3.480
  252SOL    HW2  756   4.001   4.356   3.435
  253SOL     OW  757   2.049   2.854   1.115
  253SOL    HW1  758   2.094   2.936   1.095
  253SOL    HW2  759   2.091   2.823   1.195
  254SOL     OW  760   2.906   2.795   4.281
  254SOL    HW1  761   2.828   2.779   4.228
  254SOL    HW2  762   2.938   2.880   4.250
  255SOL     OW  763   3.127   4.899   0.246
  255SOL    HW1  764   3.197   4.851   0.291
  255SOL    HW2  765   3.128   4.864   0.156
  256SOL     OW  766   1.716   0.581   2.367
  256SOL    HW1  767   1.738   0.535   2.286
  256SOL    HW2  768   1.778   0.654   2.371
  257SOL     OW  769   1.972   1.728   1.896
  257SOL    HW1  770   1.932   1.788   1.958
  257SOL    HW2  771   1.906   1.660   1.882
  258SOL     OW  772   0.947   2.075   1.758
  258SOL    HW1  773   0.994   2.118   1.830
  258SOL    HW2  774   0.921   2.148   1.702
  259SOL     OW  775   3.420   5.133   2.392
  259SOL    HW1  776   3.470   5.140   2.472
  259SOL    HW2  777   3.484   5.111   2.324
  260SOL     OW  778   3.004   0.623   3.333
  260SOL    HW1  779   3.026   0.603   3.424
  260SOL    HW2  780   3.022   0.541   3.286
  261SOL     OW  781   1.325   1.904   4.313
  261SOL    HW1  782   1.343   1.990   4.351
  261SOL    HW2  783   1.396   1.848   4.346
  262SOL     OW  784   3.017   1.101   0.379
  262SOL    HW1  785   3.080   1.112   0.450
  262SOL    HW2  786   2.947   1.049   0.418
  263SOL     OW  787   3.387   1.091   0.995
  263SOL    HW1  788   3.304   1.130   0.968
  263SOL    HW2  789   3.384   1.001   0.962
  264SOL     OW  790   3.051   4.168   3.639
  264SOL    HW1  791   2.967   4.173   3.595
  264SOL    HW2  792   3.037   4.105   3.710
  265SOL     OW  793   2.218   2.919   4.212
  265SOL    HW1  794   2.135   2.948   4.173
  265SOL    HW2  795   2.195   2.843   4.264
  266SOL     OW  796   0.491   3.157   4.777
  266SOL    HW1  797   0.537   3.210   4.843
  266SOL    HW2  798   0.399   3.178   4.790
  267SOL     OW  799   1.516   1.334   5.048
  267SOL    HW1  800   1.507   1.429   5.041
  267SOL    HW2  801   1.513   1.302   4.958
  268SOL     OW  802   2.163   4.374   4.529
  268SOL    HW1  803   2.213   4.300   4.561
  268SOL    HW2  804   2.087   4.379   4.587
  269SOL     OW  805   3.316   1.707   2.160
  269SOL    HW1  806   3.401   1.747   2.180
  269SOL    HW2  807   3.330   1.663   2.076
  270SOL     OW  808   4.576   1.073   0.226
  270SOL    HW1  809   4.618   1.022   0.157
  270SOL    HW2  810   4.527   1.008   0.278
  271SOL     OW  811   4.470   1.088   5.002
  271SOL    HW1  812   4.533   1.019   5.022
  271SOL    HW2  813   4.395   1.069   5.059
  272SOL     OW  814   2.014   3.444   0.498
  272SOL    HW1  815   2.070   3.478   0.567
  272SOL    HW2  816   1.946   3.394   0.543
  273SOL     OW  817   3.000   1.566   1.979
  273SOL    HW1  818   2.967   1.485   1.940
  273SOL    HW2  819   3.095   1.553   1.983
  274SOL     OW  820   1.333   3.538   3.022
  274SOL    HW1  821   1.247   3.496   3.016
  274SOL    HW2  822   1.378   3.490   3.092
  275SOL     OW  823   1.887   4.787   1.940
  275SOL    HW1  824   1.895   4.820   1.851
  275SOL    HW2  825   1.977   4.765   1.966
  276SOL     OW  826   3.029   4.415   1.863
  276SOL    HW1  827   3.089   4.449   1.797
  276SOL    HW2  828   2.944   4.454   1.842
  277SOL     OW  829   4.618   0.971   3.917
  277SOL    HW1  830   4.605   0.913   3.842
  277SOL    HW2  831   4.557   1.044   3.903
  278SOL     OW  832   2.865   2.835   4.553
  278SOL    HW1  833   2.877   2.823   4.459
  278SOL    HW2  834   2.771   2.827   4.566
  279SOL     OW  835   3.933   0.593   2.511
  279SOL    HW1  836   3.840   0.590   2.490
  279SOL    HW2  837   3.939   0.557   2.599
  280SOL     OW  838   2.317   1.041   1.060
  280SOL    HW1  839   2.318   1.127   1.102
  280SOL    HW2  840   2.228   1.032   1.025
  281SOL     OW  841   5.136   1.923   4.557
  281SOL    HW1  842   5.121   1.858   4.489
  281SOL    HW2  843   5.129   2.007   4.512
  282SOL     OW  844   3.200   3.317   3.277
  282SOL    HW1  845   3.256   3.245   3.307
  282SOL    HW2  846   3.111   3.281   3.279
  283SOL     OW  847   0.490   0.852   1.154
  283SOL    HW1  848   0.577   0.890   1.139
  283SOL    HW2  849   0.473   0.868   1.247
  284SOL     OW  850   4.463   0.078   2.707
  284SOL    HW1  851   4.459   0.031   2.790
  284SOL    HW2  852   4.436   0.014   2.642
  285SOL     OW  853   0.584   2.764   3.981
  285SOL    HW1  854   0.510   2.714   4.015
  285SOL    HW2  855   0.658   2.737   4.036
  286SOL     OW  856   1.509   0.405   3.560
  286SOL    HW1  857   1.571   0.457   3.509
  286SOL    HW2  858   1.546   0.403   3.648
  287SOL     OW  859   4.193   4.467   1.619
  287SOL    HW1  860   4.126   4.443   1.556
  287SOL    HW2  861   4.189   4.400   1.687
  288SOL     OW  862   1.490   1.853   1.049
  288SOL    HW1  863   1.509   1.929   1.104
  288SOL    HW2  864   1.399   1.867   1.020
  289SOL     OW  865   2.727   1.220   1.408
  289SOL    HW1  866   2.655   1.272   1.444
  289SOL    HW2  867   2.756   1.269   1.331
  290SOL     OW  868   4.700   1.795   3.881
  290SOL    HW1  869   4.643   1.752   3.944
  290SOL    HW2  870   4.777   1.738   3.874
  291SOL     OW  871   1.323   1.278   0.621
  291SOL    HW1  872   1.380   1.224   0.567
  291SOL    HW2  873   1.382   1.336   0.669
  292SOL     OW  874   0.852   2.007   2.447
  292SOL    HW1  875   0.787   1.949   2.406
  292SOL    HW2  876   0.840   2.091   2.403
  293SOL     OW  877   0.379   1.353   3.866
  293SOL    HW1  878   0.430   1.291   3.918
  293SOL    HW2  879   0.386   1.436   3.914
  294SOL     OW  880   0.830   1.689   1.071
  294SOL    HW1  881   0.812   1.622   1.137
  294SOL    HW2  882   0.863   1.764   1.121
  295SOL     OW  883   1.487   1.774   3.893
  295SOL    HW1  884   1.555   1.787   3.827
  295SOL    HW2  885   1.482   1.858   3.939
  296SOL     OW  886   4.691   3.390   2.125
  296SOL    HW1  887   4.682   3.295   2.132
  296SOL    HW2  888   4.782   3.403   2.097
  297SOL     OW  889   3.979   2.097   2.768
  297SOL    HW1  890   3.962   2.024   2.827
  297SOL    HW2  891   4.071   2.120   2.785
  298SOL     OW  892   2.015   4.178   2.896
  298SOL    HW1  893   1.961   4.115   2.847
  298SOL    HW2  894   1.966   4.260   2.891
  299SOL     OW  895   0.389   0.136   2.242
  299SOL    HW1  896   0.424   0.122   2.330
  299SOL    HW2  897   0.447   0.086   2.185
  300SOL     OW  898   1.641   3.151   4.049
  300SOL    HW1  899   1.697   3.158   4.126
  300SOL    HW2  900   1.561   3.198   4.074
  301SOL     OW  901   0.832   4.882   1.609
  301SOL    HW1  902   0.751   4.833   1.619
  301SOL    HW2  903   0.900   4.815   1.597
  302SOL     OW  904   4.159   2.286   4.652
  302SOL    HW1  905   4.175   2.194   4.675
  302SOL    HW2  906   4.120   2.282   4.564
  303SOL     OW  907   0.585   0.082   4.682
  303SOL    HW1  908   0.592   0.091   4.777
  303SOL    HW2  909   0.518   0.015   4.669
  304SOL     OW  910   2.786   0.012   3.905
  304SOL    HW1  911   2.845   0.074   3.948
  304SOL    HW2  912   2.793  -0.068   3.958
  305SOL     OW  913   4.726   1.776   3.150
  305SOL    HW1  914   4.681   1.758   3.232
  305SOL    HW2  915   4.673   1.732   3.083
  306SOL     OW  916   1.107   3.576   0.336
  306SOL    HW1  917   1.080   3.664   0.310
  306SOL    HW2  918   1.026   3.532   0.359
  307SOL     OW  919   0.767   0.496   0.579
  307SOL    HW1  920   0.750   0.422   0.636
  307SOL    HW2  921   0.701   0.488   0.509
  308SOL     OW  922   3.099   4.199   2.301
  308SOL    HW1  923   3.143   4.281   2.320
  308SOL    HW2  924   3.103   4.150   2.383
  309SOL     OW  925   3.919   1.708   4.573
  309SOL    HW1  926   3.944   1.701   4.665
  309SOL    HW2  927   4.002   1.702   4.525
  310SOL     OW  928   1.417   0.558   0.659
  310SOL    HW1  929   1.390   0.500   0.729
  310SOL    HW2  930   1.336   0.579   0.612
  311SOL     OW  931   3.932   2.398   4.731
  311SOL    HW1  932   3.939   2.388   4.826
  311SOL    HW2  933   3.993   2.333   4.696
  312SOL     OW  934   2.226   2.563   3.384
  312SOL    HW1  935   2.149   2.594   3.337
  312SOL    HW2  936   2.194   2.541   3.471
  313SOL     OW  937   3.934   5.082   3.011
  313SOL    HW1  938   3.871   5.055   3.078
  313SOL    HW2  939   3.890   5.064   2.928
  314SOL     OW  940   5.138   3.201   2.657
  314SOL    HW1  941   5.089   3.240   2.730
  314SOL    HW2  942   5.077   3.202   2.583
  315SOL     OW  943   4.380   0.543   0.337
  315SOL    HW1  944   4.385   0.458   0.295
  315SOL    HW2  945   4.458   0.547   0.393
  316SOL     OW  946   0.193   1.982   4.928
  316SOL    HW1  947   0.213   2.059   4.981
  316SOL    HW2  948   0.266   1.976   4.866
  317SOL     OW  949   2.342   0.116   1.746
  317SOL    HW1  950   2.339   0.030   1.705
  317SOL    HW2  951   2.421   0.115   1.800
  318SOL     OW  952   2.907   0.776   1.234
  318SOL    HW1  953   2.856   0.713   1.182
  318SOL    HW2  954   2.842   0.840   1.263
  319SOL     OW  955   0.309   0.377   4.361
  319SOL    HW1  956   0.299   0.284   4.340
  319SOL    HW2  957   0.353   0.379   4.445
  320SOL     OW  958   3.839   2.948   2.357
  320SOL    HW1  959   3.812   3.025   2.307
  320SOL    HW2  960   3.931   2.965   2.379
  321SOL     OW  961   4.253   4.736   1.715
  321SOL    HW1  962   4.244   4.658   1.660
  321SOL    HW2  963   4.343   4.733   1.747
  322SOL     OW  964   4.805   0.942   4.101
  322SOL    HW1  965   4.748   0.927   4.026
  322SOL    HW2  966   4.856   0.861   4.110
  323SOL     OW  967   0.258   0.685   2.897
  323SOL    HW1  968   0.247   0.775   2.928
  323SOL    HW2  969   0.332   0.651   2.947
  324SOL     OW  970   4.322   3.165   3.879
  324SOL    HW1  971   4.268   3.241   3.857
  324SOL    HW2  972   4.412   3.198   3.877
  325SOL     OW  973   0.657   0.602   4.918
  325SOL    HW1  974   0.639   0.637   5.005
  325SOL    HW2  975   0.582   0.628   4.865
  326SOL     OW  976   3.303   2.306   0.426
  326SOL    HW1  977   3.242   2.320   0.354
  326SOL    HW2  978   3.385   2.281   0.385
  327SOL     OW  979   3.192   0.581   3.016
  327SOL    HW1  980   3.266   0.543   2.968
  327SOL    HW2  981   3.233   0.636   3.083
  328SOL     OW  982   5.145   3.439   1.502
  328SOL    HW1  983   5.070   3.388   1.533
  328SOL    HW2  984   5.106   3.520   1.469
  329SOL     OW  985   4.438   2.823   0.852
  329SOL    HW1  986   4.388   2.903   0.840
  329SOL    HW2  987   4.513   2.832   0.795
  330SOL     OW  988   3.390   3.105   1.794
  330SOL    HW1  989   3.400   3.189   1.837
  330SOL    HW2  990   3.356   3.046   1.862
  331SOL     OW  991   1.602   1.610   4.607
  331SOL    HW1  992   1.558   1.693   4.625
  331SOL    HW2  993   1.578   1.589   4.517
  332SOL     OW  994   2.013   5.199   4.697
  332SOL    HW1  995   2.075   5.217   4.768
  332SOL    HW2  996   2.057   5.133   4.643
  333SOL     OW  997   0.145   3.229   2.211
  333SOL    HW1  998   0.225   3.205   2.258
  333SOL    HW2  999   0.169   3.223   2.119
  334SOL     OW 1000   4.865   1.926   1.082
  334SOL    HW1 1001   4.892   2.015   1.056
  334SOL    HW2 1002   4.909   1.912   1.166
  335SOL     OW 1003   3.395   1.199   3.170
  335SOL    HW1 1004   3.387   1.104   3.159
  335SOL    HW2 1005   3.307   1.233   3.154
  336SOL     OW 1006   1.149   4.057   2.548
  336SOL    HW1 1007   1.092   3.980   2.549
  336SOL    HW2 1008   1.160   4.080   2.641
  337SOL     OW 1009   2.517   3.933   1.542
  337SOL    HW1 1010   2.468   3.977   1.611
  337SOL    HW2 1011   2.607   3.928   1.575
  338SOL     OW 1012   4.657   3.959   5.054
  338SOL    HW1 1013   4.663   3.952   4.958
  338SOL    HW2 1014   4.590   4.026   5.069
  339SOL     OW 1015   3.364   2.771   2.163
  339SOL    HW1 1016   3.429   2.718   2.117
  339SOL    HW2 1017   3.392   2.770   2.255
  340SOL     OW 1018   1.175   4.862   1.567
  340SOL    HW1 1019   1.225   4.905   1.498
  340SOL    HW2 1020   1.170   4.926   1.637
  341SOL     OW 1021   0.232   1.604   0.647
  341SOL    HW1 1022   0.238   1.539   0.718
  341SOL    HW2 1023   0.255   1.687   0.688
  342SOL     OW 1024   3.368   2.230   1.696
  342SOL    HW1 1025   3.400   2.212   1.784
  342SOL    HW2 1026   3.359   2.144   1.655
  343SOL     OW 1027   2.408   1.704   1.658
  343SOL    HW1 1028   2.390   1.666   1.572
  343SOL    HW2 1029   2.333   1.680   1.712
  344SOL     OW 1030   1.053   1.671   3.579
  344SOL    HW1 1031   1.080   1.597   3.633
  344SOL    HW2 1032   1.129   1.688   3.522
  345SOL     OW 1033   4.182   1.556   2.048
  345SOL    HW1 1034   4.154   1.525   1.962
  345SOL    HW2 1035   4.154   1.647   2.051
  346SOL     OW 1036   2.293   4.055   4.099
  346SOL    HW1 1037   2.291   3.968   4.138
  346SOL    HW2 1038   2.334   4.041   4.013
  347SOL     OW 1039   1.108   2.479   1.401
  347SOL    HW1 1040   1.106   2.391   1.440
  347SOL    HW2 1041   1.017   2.496   1.377
  348SOL     OW 1042   0.534   2.473   1.952
  348SOL    HW1 1043   0.480   2.517   1.887
  348SOL    HW2 1044   0.579   2.404   1.904
  349SOL     OW 1045   2.919   0.916   2.260
  349SOL    HW1 1046   3.001   0.943   2.300
  349SOL    HW2 1047   2.852   0.969   2.304
  350SOL     OW 1048   4.187   0.644   4.391
  350SOL    HW1 1049   4.202   0.718   4.332
  350SOL    HW2 1050   4.092   0.644   4.405
  351SOL     OW 1051   2.150   3.546   0.714
  351SOL    HW1 1052   2.225   3.587   0.755
  351SOL    HW2 1053   2.078   3.559   0.775
  352SOL     OW 1054   3.718   2.797   4.075
  352SOL    HW1 1055   3.756   2.825   3.991
  352SOL    HW2 1056   3.705   2.703   4.064
  353SOL     OW 1057   4.470   2.025   0.639
  353SOL    HW1 1058   4.399   1.963   0.623
  353SOL    HW2 1059   4.549   1.978   0.612
  354SOL     OW 1060   2.709   0.540   2.852
  354SOL    HW1 1061   2.747   0.521   2.938
  354SOL    HW2 1062   2.758   0.616   2.820
  355SOL     OW 1063   3.668   0.723   0.811
  355SOL    HW1 1064   3.574   0.735   0.829
  355SOL    HW2 1065   3.707   0.807   0.832
  356SOL     OW 1066   3.685   4.540   0.235
  356SOL    HW1 1067   3.713   4.631   0.228
  356SOL    HW2 1068   3.695   4.504   0.147
  357SOL     OW 1069   2.149   1.204   4.006
  357SOL    HW1 1070   2.077   1.263   4.029
  357SOL    HW2 1071   2.204   1.255   3.946
  358SOL     OW 1072   3.697   0.757   4.845
  358SOL    HW1 1073   3.641   0.721   4.777
  358SOL    HW2 1074   3.783   0.766   4.804
  359SOL     OW 1075   3.150   2.991   0.853
  359SOL    HW1 1076   3.108   3.068   0.815
  359SOL    HW2 1077   3.109   2.981   0.939
  360SOL     OW 1078   0.252   0.970   2.146
  360SOL    HW1 1079   0.192   0.945   2.076
  360SOL    HW2 1080   0.239   1.065   2.156
  361SOL     OW 1081   2.133   2.776   2.854
  361SOL    HW1 1082   2.047   2.769   2.812
  361SOL    HW2 1083   2.114   2.805   2.943
  362SOL     OW 1084   3.160   0.163   1.123
  362SOL    HW1 1085   3.108   0.108   1.064
  362SOL    HW2 1086   3.094   0.209   1.176
  363SOL     OW 1087   2.841   2.707   0.789
  363SOL    HW1 1088   2.858   2.625   0.743
  363SOL    HW2 1089   2.870   2.690   0.879
  364SOL     OW 1090   3.670   0.548   2.262
  364SOL    HW1 1091   3.657   0.564   2.169
  364SOL    HW2 1092   3.745   0.489   2.266
  365SOL     OW 1093   2.966   3.593   0.149
  365SOL    HW1 1094   2.956   3.688   0.159
  365SOL    HW2 1095   2.877   3.560   0.146
  366SOL     OW 1096   3.657   3.968   2.090
  366SOL    HW1 1097   3.602   3.922   2.027
  366SOL    HW2 1098   3.670   4.055   2.052
  367SOL     OW 1099   2.841   1.392   2.562
  367SOL    HW1 1100   2.828   1.390   2.467
  367SOL    HW2 1101   2.903   1.463   2.576
  368SOL     OW 1102   3.428   1.238   4.426
  368SOL    HW1 1103   3.498   1.192   4.378
  368SOL    HW2 1104   3.359   1.250   4.361
  369SOL     OW 1105   1.532   5.136   4.250
  369SOL    HW1 1106   1.573   5.173   4.172
  369SOL    HW2 1107   1.444   5.175   4.250
  370SOL     OW 1108   1.473   3.473   0.843
  370SOL    HW1 1109   1.423   3.406   0.798
  370SOL    HW2 1110   1.442   3.469   0.934
  371SOL     OW 1111   4.373   0.165   4.910
  371SOL    HW1 1112   4.443   0.229   4.926
  371SOL    HW2 1113   4.296   0.218   4.890
  372SOL     OW 1114   0.449   2.925   3.588
  372SOL    HW1 1115   0.440   3.015   3.556
  372SOL    HW2 1116   0.501   2.933   3.668
  373SOL     OW 1117   4.686   3.917   1.177
  373SOL    HW1 1118   4.764   3.870   1.206
  373SOL    HW2 1119   4.613   3.862   1.204
  374SOL     OW 1120   0.388   1.152   4.396
  374SOL    HW1 1121   0.362   1.209   4.469
  374SOL    HW2 1122   0.476   1.181   4.373
  375SOL     OW 1123   0.880   4.790   3.569
  375SOL    HW1 1124   0.820   4.742   3.512
  375SOL    HW2 1125   0.920   4.856   3.512
  376SOL     OW 1126   4.142   0.268   4.799
  376SOL    HW1 1127   4.071   0.321   4.835
  376SOL    HW2 1128   4.164   0.310   4.716
  377SOL     OW 1129   4.581   3.092   0.225
  377SOL    HW1 1130   4.520   3.165   0.222
  377SOL    HW2 1131   4.593   3.066   0.133
  378SOL     OW 1132   3.249   4.312   3.959
  378SOL    HW1 1133   3.286   4.241   3.908
  378SOL    HW2 1134   3.250   4.281   4.049
  379SOL     OW 1135   3.957   3.085   3.596
  379SOL    HW1 1136   4.030   3.140   3.569
  379SOL    HW2 1137   3.881   3.120   3.549
  380SOL     OW 1138   3.568   0.865   2.543
  380SOL    HW1 1139   3.522   0.785   2.518
  380SOL    HW2 1140   3.514   0.903   2.612
  381SOL     OW 1141   1.851   5.116   3.704
  381SOL    HW1 1142   1.945   5.102   3.695
  381SOL    HW2 1143   1.814   5.028   3.703
  382SOL     OW 1144   4.490   1.076   2.786
  382SOL    HW1 1145   4.441   1.155   2.763
  382SOL    HW2 1146   4.567   1.078   2.729
  383SOL     OW 1147   0.632   4.394   2.520
  383SOL    HW1 1148   0.682   4.469   2.488
  383SOL    HW2 1149   0.672   4.373   2.604
  384SOL     OW 1150   0.944   0.131   3.799
  384SOL    HW1 1151   0.860   0.173   3.783
  384SOL    HW2 1152   0.990   0.135   3.715
  385SOL     OW 1153   2.784   2.615   0.276
  385SOL    HW1 1154   2.714   2.550   0.279
  385SOL    HW2 1155   2.825   2.602   0.191
  386SOL     OW 1156   2.824   0.408   4.367
  386SOL    HW1 1157   2.909   0.432   4.402
  386SOL    HW2 1158   2.843   0.355   4.290
  387SOL     OW 1159   1.854   3.888   2.013
  387SOL    HW1 1160   1.937   3.927   1.987
  387SOL    HW2 1161   1.793   3.962   2.015
  388SOL     OW 1162   1.368   3.138   4.778
  388SOL    HW1 1163   1.289   3.097   4.813
  388SOL    HW2 1164   1.393   3.203   4.843
  389SOL     OW 1165   2.584   2.596   0.684
  389SOL    HW1 1166   2.637   2.674   0.666
  389SOL    HW2 1167   2.591   2.583   0.779
  390SOL     OW 1168   1.743   3.157   0.330
  390SOL    HW1 1169   1.810   3.097   0.364
  390SOL    HW2 1170   1.678   3.100   0.288
  391SOL     OW 1171   1.551   3.457   2.841
  391SOL    HW1 1172   1.604   3.411   2.906
  391SOL    HW2 1173   1.500   3.519   2.891
  392SOL     OW 1174   0.144   3.374   1.709
  392SOL    HW1 1175   0.106   3.437   1.770
  392SOL    HW2 1176   0.088   3.380   1.631
  393SOL     OW 1177   1.069   5.206   1.060
  393SOL    HW1 1178   1.065   5.131   1.001
  393SOL    HW2 1179   1.020   5.177   1.137
  394SOL     OW 1180   3.459   4.285   5.155
  394SOL    HW1 1181   3.419   4.332   5.228
  394SOL    HW2 1182   3.532   4.341   5.127
  395SOL     OW 1183   1.535   4.290   3.373
  395SOL    HW1 1184   1.477   4.289   3.449
  395SOL    HW2 1185   1.578   4.205   3.374
  396SOL     OW 1186   4.461   1.756   4.049
  396SOL    HW1 1187   4.453   1.689   4.116
  396SOL    HW2 1188   4.509   1.827   4.091
  397SOL     OW 1189   2.254   2.301   0.664
  397SOL    HW1 1190   2.228   2.354   0.740
  397SOL    HW2 1191   2.310   2.359   0.612
  398SOL     OW 1192   2.744   0.994   1.278
  398SOL    HW1 1193   2.729   1.026   1.189
  398SOL    HW2 1194   2.708   1.063   1.334
  399SOL     OW 1195   4.423   4.314   2.033
  399SOL    HW1 1196   4.334   4.336   2.061
  399SOL    HW2 1197   4.468   4.287   2.112
  400SOL     OW 1198   4.556   0.095   0.618
  400SOL    HW1 1199   4.488   0.036   0.585
  400SOL    HW2 1200   4.584   0.054   0.700
  401SOL     OW 1201   1.938   2.953   4.484
  401SOL    HW1 1202   1.992   3.029   4.463
  401SOL    HW2 1203   1.862   2.989   4.530
  402SOL     OW 1204   0.906   4.436   3.554
  402SOL    HW1 1205   0.984   4.407   3.601
  402SOL    HW2 1206   0.842   4.453   3.623
  403SOL     OW 1207   4.917   4.698   1.666
  403SOL    HW1 1208   4.994   4.678   1.720
  403SOL    HW2 1209   4.843   4.689   1.726
  404SOL     OW 1210   1.630   4.615   1.618
  404SOL    HW1 1211   1.597   4.592   1.531
  404SOL    HW2 1212   1.552   4.618   1.674
  405SOL     OW 1213   3.050   2.104   1.549
  405SOL    HW1 1214   3.129   2.057   1.576
  405SOL    HW2 1215   3.034   2.167   1.620
  406SOL     OW 1216   1.055   0.223   2.084
  406SOL    HW1 1217   0.964   0.251   2.090
  406SOL    HW2 1218   1.069   0.205   1.991
  407SOL     OW 1219   0.069   4.557   3.198
  407SOL    HW1 1220   0.020   4.485   3.157
  407SOL    HW2 1221   0.006   4.598   3.258
  408SOL     OW 1222   4.427   3.334   3.103
  408SOL    HW1 1223   4.521   3.349   3.106
  408SOL    HW2 1224   4.413   3.253   3.151
  409SOL     OW 1225   3.531   5.085   3.927
  409SOL    HW1 1226   3.451   5.136   3.932
  409SOL    HW2 1227   3.579   5.106   4.008
  410SOL     OW 1228   0.551   2.010   1.875
  410SOL    HW1 1229   0.468   1.971   1.903
  410SOL    HW2 1230   0.617   1.944   1.897
  411SOL     OW 1231   0.783   4.987   4.672
  411SOL    HW1 1232   0.699   5.014   4.635
  411SOL    HW2 1233   0.848   5.035   4.620
  412SOL     OW 1234   2.611   3.453   0.703
  412SOL    HW1 1235   2.680   3.483   0.644
  412SOL    HW2 1236   2.648   3.378   0.748
  413SOL     OW 1237   0.863   0.676   1.246
  413SOL    HW1 1238   0.939   0.652   1.194
  413SOL    HW2 1239   0.893   0.747   1.302
  414SOL     OW 1240   2.724   4.834   0.960
  414SOL    HW1 1241   2.645   4.784   0.943
  414SOL    HW2 1242   2.764   4.846   0.874
  415SOL     OW 1243   3.995   4.038   1.395
  415SOL    HW1 1244   3.915   4.049   1.342
  415SOL    HW2 1245   3.966   4.050   1.485
  416SOL     OW 1246   2.954   4.504   0.421
  416SOL    HW1 1247   3.009   4.493   0.343
  416SOL    HW2 1248   3.012   4.546   0.485
  417SOL     OW 1249   3.115   3.030   0.537
  417SOL    HW1 1250   3.118   3.098   0.603
  417SOL    HW2 1251   3.072   3.071   0.461
  418SOL     OW 1252   1.454   0.077   2.014
  418SOL    HW1 1253   1.371   0.052   2.055
  418SOL    HW2 1254   1.441   0.169   1.990
  419SOL     OW 1255   2.370   0.632   2.611
  419SOL    HW1 1256   2.318   0.673   2.542
  419SOL    HW2 1257   2.451   0.683   2.613
  420SOL     OW 1258   0.494   2.062   1.492
  420SOL    HW1 1259   0.477   2.152   1.520
  420SOL    HW2 1260   0.426   2.044   1.427
  421SOL     OW 1261   1.468   2.083   1.961
  421SOL    HW1 1262   1.482   2.001   1.913
  421SOL    HW2 1263   1.497   2.063   2.050
  422SOL     OW 1264   3.914   1.138   0.394
  422SOL    HW1 1265   3.890   1.189   0.316
  422SOL    HW2 1266   4.009   1.150   0.402
  423SOL     OW 1267   3.403   1.929   1.063
  423SOL    HW1 1268   3.373   2.015   1.033
  423SOL    HW2 1269   3.383   1.870   0.991
  424SOL     OW 1270   4.935   3.163   3.136
  424SOL    HW1 1271   5.007   3.102   3.118
  424SOL    HW2 1272   4.977   3.237   3.180
  425SOL     OW 1273   3.665   1.281   0.013
  425SOL    HW1 1274   3.619   1.214   0.063
  425SOL    HW2 1275   3.726   1.321   0.076
  426SOL     OW 1276   1.923   3.459   5.041
  426SOL    HW1 1277   1.961   3.489   5.123
  426SOL    HW2 1278   1.841   3.506   5.033
  427SOL     OW 1279   2.030   1.666   0.257
  427SOL    HW1 1280   2.115   1.692   0.222
  427SOL    HW2 1281   1.972   1.739   0.235
  428SOL     OW 1282   1.382   2.347   3.512
  428SOL    HW1 1283   1.345   2.379   3.430
  428SOL    HW2 1284   1.398   2.425   3.564
  429SOL     OW 1285   1.841   3.073   1.146
  429SOL    HW1 1286   1.929   3.111   1.150
  429SOL    HW2 1287   1.855   2.981   1.166
  430SOL     OW 1288   2.822   2.911   0.573
  430SOL    HW1 1289   2.911   2.944   0.562
  430SOL    HW2 1290   2.825   2.856   0.652
  431SOL     OW 1291   2.081   1.626   5.131
  431SOL    HW1 1292   2.148   1.646   5.196
  431SOL    HW2 1293   2.002   1.671   5.164
  432SOL     OW 1294   4.589   0.787   1.315
  432SOL    HW1 1295   4.562   0.746   1.396
  432SOL    HW2 1296   4.532   0.749   1.248
  433SOL     OW 1297   2.794   4.833   5.132
  433SOL    HW1 1298   2.774   4.793   5.216
  433SOL    HW2 1299   2.757   4.773   5.067
  434SOL     OW 1300   0.547   4.224   0.557
  434SOL    HW1 1301   0.542   4.294   0.622
  434SOL    HW2 1302   0.544   4.269   0.473
  435SOL     OW 1303   4.105   1.691   0.914
  435SOL    HW1 1304   4.076   1.777   0.944
  435SOL    HW2 1305   4.195   1.705   0.884
  436SOL     OW 1306   2.028   1.397   3.388
  436SOL    HW1 1307   2.057   1.485   3.411
  436SOL    HW2 1308   1.992   1.406   3.299
  437SOL     OW 1309   1.414   0.094   2.733
  437SOL    HW1 1310   1.486   0.032   2.717
  437SOL    HW2 1311   1.457   0.170   2.773
  438SOL     OW 1312   2.384   1.795   0.891
  438SOL    HW1 1313   2.323   1.854   0.936
  438SOL    HW2 1314   2.471   1.825   0.918
  439SOL     OW 1315   0.720   3.716   2.575
  439SOL    HW1 1316   0.652   3.779   2.600
  439SOL    HW2 1317   0.672   3.641   2.540
  440SOL     OW 1318   1.090   0.741   4.299
  440SOL    HW1 1319   1.059   0.669   4.353
  440SOL    HW2 1320   1.181   0.718   4.278
  441SOL     OW 1321   1.863   1.851   3.264
  441SOL    HW1 1322   1.848   1.775   3.208
  441SOL    HW2 1323   1.959   1.857   3.271
  442SOL     OW 1324   1.324   0.870   2.216
  442SOL    HW1 1325   1.372   0.809   2.272
  442SOL    HW2 1326   1.290   0.815   2.145
  443SOL     OW 1327   2.604   3.426   3.533
  443SOL    HW1 1328   2.561   3.389   3.456
  443SOL    HW2 1329   2.628   3.350   3.586
  444SOL     OW 1330   3.027   2.000   4.659
  444SOL    HW1 1331   2.942   2.008   4.702
  444SOL    HW2 1332   3.032   1.908   4.634
  445SOL     OW 1333   1.704   1.606   1.601
  445SOL    HW1 1334   1.736   1.576   1.686
  445SOL    HW2 1335   1.634   1.544   1.579
  446SOL     OW 1336   1.969   2.301   1.634
  446SOL    HW1 1337   1.989   2.210   1.613
  446SOL    HW2 1338   1.876   2.300   1.657
  447SOL     OW 1339   4.763   1.895   1.777
  447SOL    HW1 1340   4.721   1.821   1.822
  447SOL    HW2 1341   4.769   1.963   1.844
  448SOL     OW 1342   3.371   5.066   0.752
  448SOL    HW1 1343   3.451   5.058   0.700
  448SOL    HW2 1344   3.303   5.086   0.689
  449SOL     OW 1345   0.452   1.010   0.845
  449SOL    HW1 1346   0.547   1.004   0.831
  449SOL    HW2 1347   0.437   0.964   0.927
  450SOL     OW 1348   1.563   2.593   1.429
  450SOL    HW1 1349   1.559   2.538   1.350
  450SOL    HW2 1350   1.543   2.681   1.398
  451SOL     OW 1351   1.244   4.164   4.347
  451SOL    HW1 1352   1.214   4.252   4.367
  451SOL    HW2 1353   1.315   4.147   4.410
  452SOL     OW 1354   1.154   5.112   3.271
  452SOL    HW1 1355   1.226   5.174   3.278
  452SOL    HW2 1356   1.160   5.077   3.183
  453SOL     OW 1357   0.319   3.049   1.550
  453SOL    HW1 1358   0.238   3.053   1.499
  453SOL    HW2 1359   0.295   3.002   1.630
  454SOL     OW 1360   3.071   1.822   1.903
  454SOL    HW1 1361   3.032   1.812   1.816
  454SOL    HW2 1362   3.048   1.741   1.948
  455SOL     OW 1363   1.039   5.159   0.701
  455SOL    HW1 1364   1.018   5.066   0.711
  455SOL    HW2 1365   1.132   5.165   0.725
  456SOL     OW 1366   1.648   3.660   1.080
  456SOL    HW1 1367   1.641   3.683   1.173
  456SOL    HW2 1368   1.569   3.609   1.062
  457SOL     OW 1369   3.802   1.577   0.695
  457SOL    HW1 1370   3.847   1.535   0.768
  457SOL    HW2 1371   3.809   1.671   0.712
  458SOL     OW 1372   0.663   3.262   1.602
  458SOL    HW1 1373   0.570   3.275   1.620
  458SOL    HW2 1374   0.701   3.349   1.609
  459SOL     OW 1375   3.698   2.196   3.100
  459SOL    HW1 1376   3.696   2.172   3.193
  459SOL    HW2 1377   3.777   2.249   3.091
  460SOL     OW 1378   3.805   2.525   3.976
  460SOL    HW1 1379   3.778   2.442   3.937
  460SOL    HW2 1380   3.778   2.591   3.911
  461SOL     OW 1381   1.560   5.076   2.596
  461SOL    HW1 1382   1.638   5.036   2.636
  461SOL    HW2 1383   1.526   5.009   2.537
  462SOL     OW 1384   5.024   4.126   2.304
  462SOL    HW1 1385   4.979   4.184   2.243
  462SOL    HW2 1386   5.080   4.072   2.247
  463SOL     OW 1387   4.572   3.972   3.156
  463SOL    HW1 1388   4.551   3.914   3.229
  463SOL    HW2 1389   4.620   3.917   3.094
  464SOL     OW 1390   1.153   4.252   3.702
  464SOL    HW1 1391   1.106   4.287   3.778
  464SOL    HW2 1392   1.109   4.169   3.682
  465SOL     OW 1393   0.173   3.764   3.937
  465SOL    HW1 1394   0.175   3.738   3.845
  465SOL    HW2 1395   0.265   3.765   3.964
  466SOL     OW 1396   0.124   0.456   4.132
  466SOL    HW1 1397   0.061   0.473   4.202
  466SOL    HW2 1398   0.208   0.444   4.178
  467SOL     OW 1399   1.942   2.189   0.216
  467SOL    HW1 1400   1.887   2.174   0.293
  467SOL    HW2 1401   2.005   2.255   0.245
  468SOL     OW 1402   1.810   0.782   4.640
  468SOL    HW1 1403   1.736   0.774   4.581
  468SOL    HW2 1404   1.871   0.713   4.612
  469SOL     OW 1405   0.489   0.657   3.949
  469SOL    HW1 1406   0.489   0.709   4.030
  469SOL    HW2 1407   0.401   0.668   3.914
  470SOL     OW 1408   0.215   3.857   0.554
  470SOL    HW1 1409   0.127   3.896   0.558
  470SOL    HW2 1410   0.198   3.763   0.545
  471SOL     OW 1411   0.173   1.596   2.221
  471SOL    HW1 1412   0.131   1.542   2.154
  471SOL    HW2 1413   0.250   1.633   2.178
  472SOL     OW 1414   4.891   3.514   5.003
  472SOL    HW1 1415   4.910   3.608   5.004
  472SOL    HW2 1416   4.929   3.481   5.085
  473SOL     OW 1417   4.699   0.379   3.306
  473SOL    HW1 1418   4.615   0.333   3.299
  473SOL    HW2 1419   4.723   0.400   3.216
  474SOL     OW 1420   0.324   4.709   4.537
  474SOL    HW1 1421   0.417   4.711   4.558
  474SOL    HW2 1422   0.283   4.765   4.603
  475SOL     OW 1423   0.582   0.189   2.970
  475SOL    HW1 1424   0.526   0.129   3.020
  475SOL    HW2 1425   0.617   0.136   2.898
  476SOL     OW 1426   2.248   1.786   4.784
  476SOL    HW1 1427   2.242   1.880   4.767
  476SOL    HW2 1428   2.157   1.758   4.796
  477SOL     OW 1429   4.102   3.282   0.843
  477SOL    HW1 1430   4.033   3.283   0.910
  477SOL    HW2 1431   4.161   3.352   0.869
  478SOL     OW 1432   4.076   3.068   1.964
  478SOL    HW1 1433   4.106   3.158   1.976
  478SOL    HW2 1434   3.980   3.075   1.967
  479SOL     OW 1435   4.995   2.093   4.401
  479SOL    HW1 1436   5.014   2.038   4.326
  479SOL    HW2 1437   4.919   2.052   4.442
  480SOL     OW 1438   3.220   0.359   1.943
  480SOL    HW1 1439   3.246   0.297   2.011
  480SOL    HW2 1440   3.263   0.326   1.864
  481SOL     OW 1441   2.534   4.804   1.379
  481SOL    HW1 1442   2.613   4.767   1.337
  481SOL    HW2 1443   2.526   4.756   1.461
  482SOL     OW 1444   2.898   1.541   0.643
  482SOL    HW1 1445   2.977   1.491   0.664
  482SOL    HW2 1446   2.904   1.556   0.548
  483SOL     OW 1447   2.477   0.417   2.954
  483SOL    HW1 1448   2.533   0.477   2.905
  483SOL    HW2 1449   2.399   0.407   2.899
  484SOL     OW 1450   0.272   4.664   1.834
  484SOL    HW1 1451   0.350   4.633   1.789
  484SOL    HW2 1452   0.305   4.723   1.903
  485SOL     OW 1453   3.698   0.185   0.906
  485SOL    HW1 1454   3.626   0.124   0.923
  485SOL    HW2 1455   3.675   0.227   0.823
  486SOL     OW 1456   0.344   4.905   1.542
  486SOL    HW1 1457   0.333   4.941   1.630
  486SOL    HW2 1458   0.257   4.872   1.518
  487SOL     OW 1459   3.015   3.475   0.611
  487SOL    HW1 1460   2.938   3.470   0.555
  487SOL    HW2 1461   3.017   3.566   0.642
  488SOL     OW 1462   2.234   0.739   4.373
  488SOL    HW1 1463   2.214   0.814   4.317
  488SOL    HW2 1464   2.154   0.685   4.370
  489SOL     OW 1465   3.541   3.560   2.842
  489SOL    HW1 1466   3.451   3.583   2.865
  489SOL    HW2 1467   3.567   3.494   2.906
  490SOL     OW 1468   0.839   4.827   4.883
  490SOL    HW1 1469   0.758   4.812   4.931
  490SOL    HW2 1470   0.815   4.892   4.816
  491SOL     OW 1471   3.964   0.501   2.262
  491SOL    HW1 1472   3.947   0.557   2.337
  491SOL    HW2 1473   4.056   0.476   2.271
  492SOL     OW 1474   2.601   1.063   0.649
  492SOL    HW1 1475   2.633   1.153   0.649
  492SOL    HW2 1476   2.542   1.058   0.574
  493SOL     OW 1477   2.014   3.056   0.444
  493SOL    HW1 1478   2.009   3.111   0.367
  493SOL    HW2 1479   2.037   3.116   0.515
  494SOL     OW 1480   2.017   0.376   2.930
  494SOL    HW1 1481   2.097   0.428   2.917
  494SOL    HW2 1482   2.029   0.336   3.017
  495SOL     OW 1483   2.773   0.388   1.178
  495SOL    HW1 1484   2.707   0.441   1.222
  495SOL    HW2 1485   2.762   0.407   1.085
  496SOL     OW 1486   3.798   0.927   0.507
  496SOL    HW1 1487   3.819   1.018   0.486
  496SOL    HW2 1488   3.879   0.892   0.545
  497SOL     OW 1489   5.123   1.268   4.910
  497SOL    HW1 1490   5.161   1.180   4.903
  497SOL    HW2 1491   5.064   1.263   4.986
  498SOL     OW 1492   3.931   4.803   1.034
  498SOL    HW1 1493   3.835   4.805   1.034
  498SOL    HW2 1494   3.953   4.711   1.045
  499SOL     OW 1495   4.873   0.087   4.093
  499SOL    HW1 1496   4.952   0.068   4.041
  499SOL    HW2 1497   4.801   0.086   4.030
  500SOL     OW 1498   0.871   3.798   4.820
  500SOL    HW1 1499   0.870   3.705   4.841
  500SOL    HW2 1500   0.948   3.809   4.765
  501SOL     OW 1501   5.099   2.303   0.691
  501SOL    HW1 1502   5.170   2.365   0.707
  501SOL    HW2 1503   5.130   2.248   0.619
  502SOL     OW 1504   0.789   1.263   2.639
  502SOL    HW1 1505   0.778   1.341   2.585
  502SOL    HW2 1506   0.873   1.277   2.684
  503SOL     OW 1507   4.546   1.825   0.030
  503SOL    HW1 1508   4.507   1.813   0.116
  503SOL    HW2 1509   4.545   1.737  -0.009
  504SOL     OW 1510   0.777   5.020   1.880
  504SOL    HW1 1511   0.792   4.983   1.793
  504SOL    HW2 1512   0.859   5.005   1.927
  505SOL     OW 1513   3.139   1.809   3.655
  505SOL    HW1 1514   3.127   1.765   3.571
  505SOL    HW2 1515   3.184   1.744   3.709
  506SOL     OW 1516   0.040   2.273   2.432
  506SOL    HW1 1517  -0.012   2.340   2.476
  506SOL    HW2 1518  -0.010   2.193   2.443
  507SOL     OW 1519   2.416   0.581   1.981
  507SOL    HW1 1520   2.366   0.501   1.994
  507SOL    HW2 1521   2.398   0.634   2.059
  508SOL     OW 1522  -0.011   2.632   3.323
  508SOL    HW1 1523  -0.021   2.558   3.383
  508SOL    HW2 1524   0.083   2.640   3.310
  509SOL     OW 1525   3.698   1.083   3.455
  509SOL    HW1 1526   3.740   1.084   3.542
  509SOL    HW2 1527   3.744   1.152   3.406
  510SOL     OW 1528   4.492   0.850   4.717
  510SOL    HW1 1529   4.422   0.801   4.759
  510SOL    HW2 1530   4.448   0.925   4.676
  511SOL     OW 1531   2.950   2.970   4.934
  511SOL    HW1 1532   2.910   2.892   4.970
  511SOL    HW2 1533   3.044   2.958   4.947
  512SOL     OW 1534   0.977   0.844   1.462
  512SOL    HW1 1535   0.903   0.815   1.515
  512SOL    HW2 1536   1.054   0.814   1.510
  513SOL     OW 1537   3.973   0.319   2.024
  513SOL    HW1 1538   3.937   0.369   1.951
  513SOL    HW2 1539   3.968   0.378   2.099
  514SOL     OW 1540   2.939   3.929   0.166
  514SOL    HW1 1541   2.978   4.009   0.130
  514SOL    HW2 1542   2.927   3.948   0.259
  515SOL     OW 1543   0.348   4.809   2.060
  515SOL    HW1 1544   0.295   4.882   2.092
  515SOL    HW2 1545   0.383   4.768   2.140
  516SOL     OW 1546   4.087   1.648   3.553
  516SOL    HW1 1547   4.156   1.582   3.564
  516SOL    HW2 1548   4.119   1.724   3.602
  517SOL     OW 1549   4.830   2.698   0.429
  517SOL    HW1 1550   4.768   2.694   0.355
  517SOL    HW2 1551   4.836   2.791   0.449
  518SOL     OW 1552   4.764   1.422   0.044
  518SOL    HW1 1553   4.777   1.374   0.125
  518SOL    HW2 1554   4.818   1.376  -0.020
  519SOL     OW 1555   0.925   2.538   2.226
  519SOL    HW1 1556   1.010   2.580   2.238
  519SOL    HW2 1557   0.914   2.532   2.131
  520SOL     OW 1558   4.381   0.324   0.211
  520SOL    HW1 1559   4.435   0.251   0.180
  520SOL    HW2 1560   4.331   0.351   0.134
  521SOL     OW 1561   0.056   0.520   2.801
  521SOL    HW1 1562   0.125   0.576   2.837
  521SOL    HW2 1563   0.097   0.434   2.794
  522SOL     OW 1564   0.770   1.816   1.694
  522SOL    HW1 1565   0.824   1.746   1.732
  522SOL    HW2 1566   0.797   1.895   1.741
  523SOL     OW 1567   3.822   3.309   2.449
  523SOL    HW1 1568   3.737   3.274   2.420
  523SOL    HW2 1569   3.880   3.296   2.374
  524SOL     OW 1570   1.788   4.396   4.098
  524SOL    HW1 1571   1.830   4.391   4.184
  524SOL    HW2 1572   1.836   4.465   4.053
  525SOL     OW 1573   0.184   5.133   2.430
  525SOL    HW1 1574   0.205   5.211   2.483
  525SOL    HW2 1575   0.124   5.165   2.363
  526SOL     OW 1576   3.220   4.786   4.373
  526SOL    HW1 1577   3.177   4.822   4.451
  526SOL    HW2 1578   3.298   4.841   4.361
  527SOL     OW 1579   4.443   4.380   2.591
  527SOL    HW1 1580   4.508   4.434   2.545
  527SOL    HW2 1581   4.361   4.429   2.583
  528SOL     OW 1582   2.863   4.217   0.144
  528SOL    HW1 1583   2.858   4.237   0.050
  528SOL    HW2 1584   2.772   4.223   0.174
  529SOL     OW 1585   4.567   2.574   3.695
  529SOL    HW1 1586   4.588   2.555   3.603
  529SOL    HW2 1587   4.547   2.488   3.733
  530SOL     OW 1588   1.107   1.384   2.394
  530SOL    HW1 1589   1.064   1.442   2.457
  530SOL    HW2 1590   1.041   1.317   2.375
  531SOL     OW 1591   4.083   4.009   3.511
  531SOL    HW1 1592   4.072   4.040   3.421
  531SOL    HW2 1593   3.994   3.986   3.539
  532SOL     OW 1594   3.009   2.079   2.003
  532SOL    HW1 1595   2.987   2.094   2.095
  532SOL    HW2 1596   3.021   1.985   1.996
  533SOL     OW 1597   2.633   5.028   1.805
  533SOL    HW1 1598   2.549   5.026   1.759
  533SOL    HW2 1599   2.662   5.119   1.797
  534SOL     OW 1600   1.190   2.530   0.161
  534SOL    HW1 1601   1.272   2.572   0.187
  534SOL    HW2 1602   1.167   2.474   0.235
  535SOL     OW 1603   0.339   3.448   0.576
  535SOL    HW1 1604   0.244   3.435   0.575
  535SOL    HW2 1605   0.353   3.514   0.644
  536SOL     OW 1606   0.085   3.923   3.372
  536SOL    HW1 1607   0.092   3.827   3.367
  536SOL    HW2 1608   0.155   3.949   3.431
  537SOL     OW 1609   0.941   2.227   3.226
  537SOL    HW1 1610   0.972   2.245   3.315
  537SOL    HW2 1611   0.845   2.221   3.235
  538SOL     OW 1612   5.184   3.013   3.079
  538SOL    HW1 1613   5.134   2.954   3.135
  538SOL    HW2 1614   5.252   3.048   3.135
  539SOL     OW 1615   1.797   4.760   4.289
  539SOL    HW1 1616   1.713   4.798   4.264
  539SOL    HW2 1617   1.783   4.724   4.376
  540SOL     OW 1618   0.879   2.733   4.032
  540SOL    HW1 1619   0.910   2.654   4.077
  540SOL    HW2 1620   0.846   2.701   3.948
  541SOL     OW 1621   0.897   3.539   0.491
  541SOL    HW1 1622   0.884   3.444   0.490
  541SOL    HW2 1623   0.817   3.574   0.452
  542SOL     OW 1624   2.358   4.608   3.902
  542SOL    HW1 1625   2.330   4.524   3.867
  542SOL    HW2 1626   2.414   4.646   3.834
  543SOL     OW 1627   1.391   2.466   0.666
  543SOL    HW1 1628   1.326   2.514   0.717
  543SOL    HW2 1629   1.424   2.399   0.726
  544SOL     OW 1630   2.215   2.720   1.353
  544SOL    HW1 1631   2.271   2.732   1.430
  544SOL    HW2 1632   2.276   2.703   1.281
  545SOL     OW 1633   2.404   5.086   0.385
  545SOL    HW1 1634   2.329   5.140   0.360
  545SOL    HW2 1635   2.408   5.092   0.480
  546SOL     OW 1636   1.834   2.698   4.041
  546SOL    HW1 1637   1.831   2.761   4.112
  546SOL    HW2 1638   1.907   2.640   4.063
  547SOL     OW 1639   0.061   5.044   3.207
  547SOL    HW1 1640   0.122   4.980   3.244
  547SOL    HW2 1641   0.025   5.090   3.283
  548SOL     OW 1642   2.598   2.222   4.947
  548SOL    HW1 1643   2.688   2.188   4.948
  548SOL    HW2 1644   2.554   2.172   4.878
  549SOL     OW 1645   2.475   2.146   3.108
  549SOL    HW1 1646   2.480   2.070   3.167
  549SOL    HW2 1647   2.416   2.207   3.153
  550SOL     OW 1648   1.819   0.758   2.865
  550SOL    HW1 1649   1.774   0.832   2.826
  550SOL    HW2 1650   1.903   0.794   2.895
  551SOL     OW 1651   2.497   2.417   1.264
  551SOL    HW1 1652   2.403   2.422   1.279
  551SOL    HW2 1653   2.532   2.497   1.304
  552SOL     OW 1654   4.323   1.749   2.886
  552SOL    HW1 1655   4.322   1.686   2.814
  552SOL    HW2 1656   4.398   1.724   2.940
  553SOL     OW 1657   1.292   2.412   4.871
  553SOL    HW1 1658   1.350   2.446   4.803
  553SOL    HW2 1659   1.278   2.487   4.930
  554SOL     OW 1660   5.142   2.151   5.147
  554SOL    HW1 1661   5.163   2.059   5.131
  554SOL    HW2 1662   5.078   2.149   5.218
  555SOL     OW 1663   3.248   4.898   1.157
  555SOL    HW1 1664   3.184   4.966   1.180
  555SOL    HW2 1665   3.294   4.879   1.239
  556SOL     OW 1666   3.298   3.910   4.045
  556SOL    HW1 1667   3.249   3.832   4.072
  556SOL    HW2 1668   3.370   3.875   3.991
  557SOL     OW 1669   4.554   3.796   4.793
  557SOL    HW1 1670   4.588   3.825   4.708
  557SOL    HW2 1671   4.608   3.719   4.815
  558SOL     OW 1672   1.725   4.931   0.101
  558SOL    HW1 1673   1.665   5.004   0.117
  558SOL    HW2 1674   1.804   4.973   0.066
  559SOL     OW 1675   2.995   3.542   3.169
  559SOL    HW1 1676   2.993   3.592   3.251
  559SOL    HW2 1677   3.072   3.486   3.177
  560SOL     OW 1678   4.523   2.015   4.996
  560SOL    HW1 1679   4.568   1.965   4.928
  560SOL    HW2 1680   4.540   1.966   5.077
  561SOL     OW 1681   0.670   2.785   5.002
  561SOL    HW1 1682   0.702   2.726   5.070
  561SOL    HW2 1683   0.585   2.815   5.033
  562SOL     OW 1684   0.408   0.801   3.375
  562SOL    HW1 1685   0.411   0.889   3.337
  562SOL    HW2 1686   0.461   0.808   3.454
  563SOL     OW 1687   4.888   4.561   0.674
  563SOL    HW1 1688   4.881   4.576   0.580
  563SOL    HW2 1689   4.800   4.577   0.708
  564SOL     OW 1690   0.727   1.466   0.133
  564SOL    HW1 1691   0.794   1.443   0.197
  564SOL    HW2 1692   0.773   1.467   0.049
  565SOL     OW 1693   4.548   4.411   2.996
  565SOL    HW1 1694   4.468   4.362   3.013
  565SOL    HW2 1695   4.524   4.502   3.009
  566SOL     OW 1696   0.622   1.990   3.006
  566SOL    HW1 1697   0.717   1.984   2.994
  566SOL    HW2 1698   0.602   2.083   3.000
  567SOL     OW 1699   2.389   0.747   2.180
  567SOL    HW1 1700   2.331   0.751   2.256
  567SOL    HW2 1701   2.477   0.744   2.218
  568SOL     OW 1702   1.289   2.185   2.321
  568SOL    HW1 1703   1.359   2.249   2.332
  568SOL    HW2 1704   1.328   2.102   2.347
  569SOL     OW 1705   2.297   0.812   4.084
  569SOL    HW1 1706   2.215   0.859   4.067
  569SOL    HW2 1707   2.356   0.842   4.015
  570SOL     OW 1708   2.618   5.212   4.743
  570SOL    HW1 1709   2.647   5.121   4.741
  570SOL    HW2 1710   2.617   5.239   4.651
  571SOL     OW 1711   5.027   5.167   1.430
  571SOL    HW1 1712   4.999   5.206   1.348
  571SOL    HW2 1713   4.961   5.196   1.494
  572SOL     OW 1714   4.789   4.534   1.120
  572SOL    HW1 1715   4.799   4.547   1.214
  572SOL    HW2 1716   4.826   4.612   1.080
  573SOL     OW 1717   2.545   2.229   0.394
  573SOL    HW1 1718   2.574   2.253   0.307
  573SOL    HW2 1719   2.622   2.192   0.437
  574SOL     OW 1720   2.668   3.166   1.974
  574SOL    HW1 1721   2.615   3.124   2.042
  574SOL    HW2 1722   2.690   3.252   2.012
  575SOL     OW 1723   2.036   3.410   4.100
  575SOL    HW1 1724   2.040   3.475   4.030
  575SOL    HW2 1725   1.951   3.425   4.142
  576SOL     OW 1726   4.407   0.340   3.252
  576SOL    HW1 1727   4.384   0.320   3.161
  576SOL    HW2 1728   4.351   0.414   3.274
  577SOL     OW 1729   3.849   1.051   2.003
  577SOL    HW1 1730   3.786   1.039   2.074
  577SOL    HW2 1731   3.862   1.146   1.998
  578SOL     OW 1732   4.354   2.584   0.147
  578SOL    HW1 1733   4.399   2.649   0.094
  578SOL    HW2 1734   4.309   2.634   0.214
  579SOL     OW 1735   0.093   1.078   3.808
  579SOL    HW1 1736   0.114   1.065   3.900
  579SOL    HW2 1737   0.063   0.993   3.778
  580SOL     OW 1738   1.410   1.387   2.938
  580SOL    HW1 1739   1.362   1.310   2.906
  580SOL    HW2 1740   1.480   1.351   2.992
  581SOL     OW 1741   1.812   0.372   3.240
  581SOL    HW1 1742   1.874   0.306   3.206
  581SOL    HW2 1743   1.732   0.323   3.258
  582SOL     OW 1744   3.972   0.750   3.588
  582SOL    HW1 1745   3.937   0.781   3.505
  582SOL    HW2 1746   4.061   0.722   3.567
  583SOL     OW 1747   1.623   5.137   2.268
  583SOL    HW1 1748   1.600   5.204   2.203
  583SOL    HW2 1749   1.696   5.089   2.229
  584SOL     OW 1750   1.662   4.871   2.093
  584SOL    HW1 1751   1.593   4.890   2.031
  584SOL    HW2 1752   1.738   4.847   2.039
  585SOL     OW 1753   3.753   0.976   5.057
  585SOL    HW1 1754   3.671   1.018   5.081
  585SOL    HW2 1755   3.733   0.930   4.975
  586SOL     OW 1756   0.163   0.435   3.191
  586SOL    HW1 1757   0.239   0.489   3.215
  586SOL    HW2 1758   0.188   0.394   3.108
  587SOL     OW 1759   0.324   0.419   2.670
  587SOL    HW1 1760   0.312   0.511   2.648
  587SOL    HW2 1761   0.409   0.416   2.713
  588SOL     OW 1762   5.024   2.320   4.219
  588SOL    HW1 1763   5.020   2.237   4.266
  588SOL    HW2 1764   4.935   2.355   4.225
  589SOL     OW 1765   2.273   1.746   0.094
  589SOL    HW1 1766   2.347   1.756   0.153
  589SOL    HW2 1767   2.309   1.768   0.007
  590SOL     OW 1768   0.556   5.158   3.669
  590SOL    HW1 1769   0.576   5.150   3.762
  590SOL    HW2 1770   0.639   5.186   3.630
  591SOL     OW 1771   1.842   0.820   1.640
  591SOL    HW1 1772   1.848   0.908   1.605
  591SOL    HW2 1773   1.779   0.826   1.712
  592SOL     OW 1774   3.418   4.685   2.207
  592SOL    HW1 1775   3.347   4.640   2.161
  592SOL    HW2 1776   3.397   4.778   2.200
  593SOL     OW 1777   4.371   0.762   3.183
  593SOL    HW1 1778   4.446   0.722   3.138
  593SOL    HW2 1779   4.304   0.693   3.184
  594SOL     OW 1780   3.325   2.607   0.326
  594SOL    HW1 1781   3.300   2.675   0.389
  594SOL    HW2 1782   3.317   2.525   0.375
  595SOL     OW 1783   4.966   2.845   2.745
  595SOL    HW1 1784   4.952   2.939   2.735
  595SOL    HW2 1785   4.878   2.809   2.759
  596SOL     OW 1786   4.403   1.138   3.857
  596SOL    HW1 1787   4.329   1.077   3.857
  596SOL    HW2 1788   4.367   1.218   3.819
  597SOL     OW 1789  -0.015   2.897   2.062
  597SOL    HW1 1790   0.080   2.910   2.074
  597SOL    HW2 1791  -0.040   2.840   2.134
  598SOL     OW 1792   3.064   5.099   1.201
  598SOL    HW1 1793   3.027   5.137   1.122
  598SOL    HW2 1794   3.093   5.175   1.253
  599SOL     OW 1795   3.639   4.738   4.310
  599SOL    HW1 1796   3.572   4.670   4.307
  599SOL    HW2 1797   3.619   4.796   4.237
  600SOL     OW 1798   3.420   2.696   2.433
  600SOL    HW1 1799   3.486   2.627   2.433
  600SOL    HW2 1800   3.469   2.776   2.451
  601SOL     OW 1801   1.261   0.801   1.126
  601SOL    HW1 1802   1.187   0.857   1.151
  601SOL    HW2 1803   1.284   0.756   1.207
  602SOL     OW 1804   2.044   4.167   4.148
  602SOL    HW1 1805   1.993   4.210   4.079
  602SOL    HW2 1806   2.113   4.120   4.101
  603SOL     OW 1807   1.946   3.911   4.218
  603SOL    HW1 1808   1.979   3.999   4.197
  603SOL    HW2 1809   1.919   3.918   4.310
  604SOL     OW 1810   0.969   3.139   3.789
  604SOL    HW1 1811   1.033   3.210   3.780
  604SOL    HW2 1812   1.005   3.082   3.857
  605SOL     OW 1813   3.477   0.626   2.446
  605SOL    HW1 1814   3.506   0.589   2.363
  605SOL    HW2 1815   3.515   0.570   2.512
  606SOL     OW 1816   3.018   3.566   2.355
  606SOL    HW1 1817   3.109   3.576   2.382
  606SOL    HW2 1818   3.020   3.491   2.295
  607SOL     OW 1819   0.056   0.473   5.091
  607SOL    HW1 1820  -0.011   0.404   5.094
  607SOL    HW2 1821   0.120   0.441   5.028
  608SOL     OW 1822   4.013   4.449   1.219
  608SOL    HW1 1823   3.989   4.453   1.312
  608SOL    HW2 1824   4.092   4.395   1.217
  609SOL     OW 1825   4.751   2.051   4.526
  609SOL    HW1 1826   4.702   2.106   4.588
  609SOL    HW2 1827   4.764   1.969   4.573
  610SOL     OW 1828   4.916   1.260   3.817
  610SOL    HW1 1829   5.007   1.286   3.801
  610SOL    HW2 1830   4.866   1.299   3.746
  611SOL     OW 1831   0.132   2.527   3.765
  611SOL    HW1 1832   0.078   2.460   3.809
  611SOL    HW2 1833   0.114   2.607   3.813
  612SOL     OW 1834   1.915   0.568   1.111
  612SOL    HW1 1835   1.845   0.523   1.159
  612SOL    HW2 1836   1.972   0.603   1.180
  613SOL     OW 1837   3.629   3.564   1.074
  613SOL    HW1 1838   3.612   3.490   1.132
  613SOL    HW2 1839   3.671   3.629   1.131
  614SOL     OW 1840   1.270   1.168   1.258
  614SOL    HW1 1841   1.304   1.250   1.221
  614SOL    HW2 1842   1.349   1.118   1.280
  615SOL     OW 1843   4.170   2.036   4.724
  615SOL    HW1 1844   4.203   1.949   4.698
  615SOL    HW2 1845   4.084   2.018   4.763
  616SOL     OW 1846   5.151   1.862   4.936
  616SOL    HW1 1847   5.245   1.872   4.924
  616SOL    HW2 1848   5.134   1.893   5.025
  617SOL     OW 1849   0.600   2.805   1.496
  617SOL    HW1 1850   0.682   2.823   1.449
  617SOL    HW2 1851   0.601   2.866   1.570
  618SOL     OW 1852   1.427   3.053   1.634
  618SOL    HW1 1853   1.509   3.056   1.586
  618SOL    HW2 1854   1.410   2.960   1.647
  619SOL     OW 1855   1.943   5.113   2.522
  619SOL    HW1 1856   2.005   5.108   2.448
  619SOL    HW2 1857   1.893   5.031   2.517
  620SOL     OW 1858   2.132   3.126   2.776
  620SOL    HW1 1859   2.099   3.090   2.859
  620SOL    HW2 1860   2.227   3.124   2.786
  621SOL     OW 1861   4.080   4.533   4.366
  621SOL    HW1 1862   4.044   4.622   4.376
  621SOL    HW2 1863   4.018   4.477   4.413
  622SOL     OW 1864   4.157   1.679   1.208
  622SOL    HW1 1865   4.164   1.728   1.126
  622SOL    HW2 1866   4.137   1.745   1.274
  623SOL     OW 1867   0.705   4.476   4.048
  623SOL    HW1 1868   0.643   4.403   4.053
  623SOL    HW2 1869   0.650   4.553   4.039
  624SOL     OW 1870   0.226   4.766   0.986
  624SOL    HW1 1871   0.302   4.763   1.044
  624SOL    HW2 1872   0.159   4.813   1.037
  625SOL     OW 1873   0.831   1.066   4.472
  625SOL    HW1 1874   0.908   1.090   4.421
  625SOL    HW2 1875   0.787   1.149   4.490
  626SOL     OW 1876   3.952   0.405   4.938
  626SOL    HW1 1877   3.856   0.398   4.933
  626SOL    HW2 1878   3.968   0.445   5.023
  627SOL     OW 1879   4.830   3.753   2.702
  627SOL    HW1 1880   4.812   3.797   2.785
  627SOL    HW2 1881   4.828   3.823   2.637
  628SOL     OW 1882   3.561   4.845   5.137
  628SOL    HW1 1883   3.530   4.862   5.048
  628SOL    HW2 1884   3.490   4.878   5.193
  629SOL     OW 1885   3.734   0.586   3.565
  629SOL    HW1 1886   3.643   0.604   3.588
  629SOL    HW2 1887   3.776   0.671   3.565
  630SOL     OW 1888   3.016   0.639   4.777
  630SOL    HW1 1889   3.111   0.648   4.770
  630SOL    HW2 1890   2.984   0.657   4.688
  631SOL     OW 1891   4.643   1.542   4.908
  631SOL    HW1 1892   4.614   1.487   4.981
  631SOL    HW2 1893   4.710   1.599   4.945
  632SOL     OW 1894   3.874   4.412   4.058
  632SOL    HW1 1895   3.898   4.500   4.086
  632SOL    HW2 1896   3.951   4.380   4.010
  633SOL     OW 1897   1.921   4.480   2.964
  633SOL    HW1 1898   1.967   4.532   2.899
  633SOL    HW2 1899   1.981   4.475   3.038
  634SOL     OW 1900   0.490   2.607   0.239
  634SOL    HW1 1901   0.417   2.585   0.181
  634SOL    HW2 1902   0.565   2.615   0.180
  635SOL     OW 1903   2.204   2.496   3.660
  635SOL    HW1 1904   2.286   2.506   3.708
  635SOL    HW2 1905   2.141   2.548   3.709
  636SOL     OW 1906   4.665   1.507   2.396
  636SOL    HW1 1907   4.693   1.475   2.482
  636SOL    HW2 1908   4.594   1.568   2.414
  637SOL     OW 1909   2.740   1.923   2.114
  637SOL    HW1 1910   2.671   1.870   2.074
  637SOL    HW2 1911   2.696   2.004   2.140
  638SOL     OW 1912   2.140   4.788   3.860
  638SOL    HW1 1913   2.208   4.742   3.811
  638SOL    HW2 1914   2.162   4.773   3.952
  639SOL     OW 1915   0.651   0.492   1.307
  639SOL    HW1 1916   0.696   0.414   1.275
  639SOL    HW2 1917   0.712   0.564   1.289
  640SOL     OW 1918   4.245   4.224   3.221
  640SOL    HW1 1919   4.192   4.148   3.245
  640SOL    HW2 1920   4.298   4.193   3.147
  641SOL     OW 1921   4.742   4.198   3.708
  641SOL    HW1 1922   4.680   4.217   3.638
  641SOL    HW2 1923   4.692   4.214   3.789
  642SOL     OW 1924   0.050   0.265   4.849
  642SOL    HW1 1925  -0.023   0.226   4.802
  642SOL    HW2 1926   0.033   0.244   4.941
  643SOL     OW 1927   3.881   1.511   2.860
  643SOL    HW1 1928   3.886   1.416   2.849
  643SOL    HW2 1929   3.788   1.531   2.852
  644SOL     OW 1930   4.428   4.494   0.750
  644SOL    HW1 1931   4.447   4.473   0.841
  644SOL    HW2 1932   4.335   4.515   0.749
  645SOL     OW 1933   1.260   2.959   3.304
  645SOL    HW1 1934   1.206   2.880   3.293
  645SOL    HW2 1935   1.278   2.988   3.214
  646SOL     OW 1936   0.545   4.259   4.049
  646SOL    HW1 1937   0.468   4.303   4.086
  646SOL    HW2 1938   0.509   4.203   3.980
  647SOL     OW 1939   1.720   0.787   0.342
  647SOL    HW1 1940   1.651   0.789   0.408
  647SOL    HW2 1941   1.765   0.704   0.358
  648SOL     OW 1942   4.444   3.187   2.380
  648SOL    HW1 1943   4.446   3.209   2.286
  648SOL    HW2 1944   4.536   3.177   2.404
  649SOL     OW 1945   1.909   0.419   1.973
  649SOL    HW1 1946   1.942   0.507   1.960
  649SOL    HW2 1947   1.850   0.426   2.048
  650SOL     OW 1948   2.535   2.751   2.506
  650SOL    HW1 1949   2.592   2.760   2.583
  650SOL    HW2 1950   2.595   2.734   2.434
  651SOL     OW 1951   3.211   2.862   2.547
  651SOL    HW1 1952   3.223   2.924   2.475
  651SOL    HW2 1953   3.258   2.784   2.520
  652SOL     OW 1954   2.836   0.199   3.116
  652SOL    HW1 1955   2.760   0.236   3.161
  652SOL    HW2 1956   2.909   0.255   3.144
  653SOL     OW 1957   2.141   3.726   5.135
  653SOL    HW1 1958   2.148   3.645   5.185
  653SOL    HW2 1959   2.049   3.751   5.142
  654SOL     OW 1960   1.236   3.045   3.024
  654SOL    HW1 1961   1.165   2.983   3.006
  654SOL    HW2 1962   1.245   3.095   2.942
  655SOL     OW 1963   2.708   3.845   3.746
  655SOL    HW1 1964   2.679   3.761   3.782
  655SOL    HW2 1965   2.804   3.841   3.752
  656SOL     OW 1966   1.795   1.676   4.201
  656SOL    HW1 1967   1.744   1.598   4.225
  656SOL    HW2 1968   1.738   1.749   4.223
  657SOL     OW 1969   2.495   1.649   0.682
  657SOL    HW1 1970   2.453   1.720   0.731
  657SOL    HW2 1971   2.515   1.583   0.748
  658SOL     OW 1972   1.195   4.394   1.015
  658SOL    HW1 1973   1.171   4.318   0.963
  658SOL    HW2 1974   1.129   4.460   0.993
  659SOL     OW 1975   3.525   4.952   3.535
  659SOL    HW1 1976   3.518   4.914   3.448
  659SOL    HW2 1977   3.532   4.877   3.594
  660SOL     OW 1978   0.913   0.262   5.051
  660SOL    HW1 1979   0.972   0.222   5.114
  660SOL    HW2 1980   0.904   0.353   5.081
  661SOL     OW 1981   4.300   0.716   3.786
  661SOL    HW1 1982   4.283   0.668   3.867
  661SOL    HW2 1983   4.274   0.806   3.806
  662SOL     OW 1984   2.395   3.057   1.210
  662SOL    HW1 1985   2.401   3.123   1.141
  662SOL    HW2 1986   2.485   3.041   1.237
  663SOL     OW 1987   2.744   2.064   0.532
  663SOL    HW1 1988   2.737   2.095   0.622
  663SOL    HW2 1989   2.690   1.985   0.529
  664SOL     OW 1990   0.277   3.357   4.643
  664SOL    HW1 1991   0.225   3.411   4.583
  664SOL    HW2 1992   0.329   3.418   4.694
  665SOL     OW 1993   3.949   5.002   4.042
  665SOL    HW1 1994   3.930   4.973   3.953
  665SOL    HW2 1995   4.017   4.942   4.072
  666SOL     OW 1996   0.320   0.066   0.874
  666SOL    HW1 1997   0.320   0.004   0.947
  666SOL    HW2 1998   0.251   0.034   0.816
  667SOL     OW 1999   5.200   4.154   1.612
  667SOL    HW1 2000   5.110   4.150   1.644
  667SOL    HW2 2001   5.250   4.193   1.684
  668SOL     OW 2002   4.397   5.074   2.552
  668SOL    HW1 2003   4.445   5.011   2.606
  668SOL    HW2 2004   4.462   5.103   2.487
  669SOL     OW 2005   3.043   4.181   2.009
  669SOL    HW1 2006   3.048   4.266   1.964
  669SOL    HW2 2007   3.021   4.203   2.099
  670SOL     OW 2008   0.877   2.282   1.553
  670SOL    HW1 2009   0.830   2.209   1.513
  670SOL    HW2 2010   0.818   2.357   1.541
  671SOL     OW 2011   4.340   4.655   3.269
  671SOL    HW1 2012   4.398   4.664   3.193
  671SOL    HW2 2013   4.256   4.690   3.238
  672SOL     OW 2014   2.153   2.036   4.726
  672SOL    HW1 2015   2.071   2.043   4.678
  672SOL    HW2 2016   2.146   2.102   4.795
  673SOL     OW 2017   2.031   2.424   2.076
  673SOL    HW1 2018   2.086   2.441   2.152
  673SOL    HW2 2019   2.088   2.380   2.013
  674SOL     OW 2020   3.287   2.497   5.065
  674SOL    HW1 2021   3.221   2.545   5.114
  674SOL    HW2 2022   3.240   2.458   4.992
  675SOL     OW 2023   2.683   0.409   4.000
  675SOL    HW1 2024   2.727   0.406   3.915
  675SOL    HW2 2025   2.606   0.464   3.986
  676SOL     OW 2026   3.796   1.136   3.713
  676SOL    HW1 2027   3.863   1.120   3.780
  676SOL    HW2 2028   3.740   1.204   3.751
  677SOL     OW 2029   0.612   3.909   1.084
  677SOL    HW1 2030   0.544   3.950   1.138
  677SOL    HW2 2031   0.623   3.969   1.010
  678SOL     OW 2032   2.457   5.080   0.671
  678SOL    HW1 2033   2.545   5.058   0.703
  678SOL    HW2 2034   2.401   5.013   0.709
  679SOL     OW 2035   1.514   3.937   3.458
  679SOL    HW1 2036   1.579   4.004   3.480
  679SOL    HW2 2037   1.535   3.863   3.514
  680SOL     OW 2038   1.206   2.569   4.053
  680SOL    HW1 2039   1.296   2.545   4.072
  680SOL    HW2 2040   1.177   2.503   3.990
  681SOL     OW 2041   3.611   1.669   3.038
  681SOL    HW1 2042   3.643   1.642   3.124
  681SOL    HW2 2043   3.597   1.587   2.990
  682SOL     OW 2044   5.034   4.665   2.426
  682SOL    HW1 2045   5.008   4.583   2.468
  682SOL    HW2 2046   5.113   4.643   2.377
  683SOL     OW 2047   2.359   4.644   2.278
  683SOL    HW1 2048   2.443   4.649   2.323
  683SOL    HW2 2049   2.377   4.595   2.197
  684SOL     OW 2050   3.218   3.451   4.978
  684SOL    HW1 2051   3.135   3.455   4.931
  684SOL    HW2 2052   3.193   3.456   5.071
  685SOL     OW 2053   4.504  -0.019   4.751
  685SOL    HW1 2054   4.475  -0.013   4.660
  685SOL    HW2 2055   4.475   0.063   4.791
  686SOL     OW 2056   1.450   2.198   0.523
  686SOL    HW1 2057   1.416   2.196   0.613
  686SOL    HW2 2058   1.437   2.110   0.490
  687SOL     OW 2059   1.779   3.258   4.382
  687SOL    HW1 2060   1.860   3.233   4.427
  687SOL    HW2 2061   1.730   3.177   4.373
  688SOL     OW 2062   3.740   0.078   0.037
  688SOL    HW1 2063   3.751   0.154   0.094
  688SOL    HW2 2064   3.822   0.030   0.045
  689SOL     OW 2065   0.453   0.962   1.859
  689SOL    HW1 2066   0.397   0.984   1.785
  689SOL    HW2 2067   0.405   0.992   1.936
  690SOL     OW 2068   4.711   3.914   2.275
  690SOL    HW1 2069   4.657   3.854   2.224
  690SOL    HW2 2070   4.737   3.982   2.213
  691SOL     OW 2071   4.878   1.045   4.338
  691SOL    HW1 2072   4.963   1.078   4.310
  691SOL    HW2 2073   4.838   1.011   4.258
  692SOL     OW 2074   2.548   4.658   0.256
  692SOL    HW1 2075   2.458   4.625   0.252
  692SOL    HW2 2076   2.539   4.752   0.244
  693SOL     OW 2077   1.828   5.181   3.162
  693SOL    HW1 2078   1.783   5.147   3.084
  693SOL    HW2 2079   1.856   5.103   3.209
  694SOL     OW 2080   2.405   1.527   4.502
  694SOL    HW1 2081   2.328   1.579   4.522
  694SOL    HW2 2082   2.442   1.505   4.587
  695SOL     OW 2083   4.306   0.554   4.613
  695SOL    HW1 2084   4.273   0.575   4.526
  695SOL    HW2 2085   4.227   0.541   4.666
  696SOL     OW 2086   4.934   3.823   4.575
  696SOL    HW1 2087   4.954   3.854   4.487
  696SOL    HW2 2088   4.841   3.842   4.587
  697SOL     OW 2089   4.881   2.498   3.334
  697SOL    HW1 2090   4.867   2.579   3.285
  697SOL    HW2 2091   4.975   2.486   3.336
  698SOL     OW 2092   1.695   0.105   4.393
  698SOL    HW1 2093   1.649   0.123   4.475
  698SOL    HW2 2094   1.640   0.040   4.348
  699SOL     OW 2095   0.255   4.766   3.134
  699SOL    HW1 2096   0.213   4.681   3.148
  699SOL    HW2 2097   0.254   4.808   3.220
  700SOL     OW 2098   3.452   3.206   3.671
  700SOL    HW1 2099   3.540   3.227   3.702
  700SOL    HW2 2100   3.420   3.289   3.635
  701SOL     OW 2101   0.520   1.755   2.766
  701SOL    HW1 2102   0.439   1.760   2.816
  701SOL    HW2 2103   0.561   1.841   2.777
  702SOL     OW 2104   2.144   1.007   0.665
  702SOL    HW1 2105   2.113   0.981   0.578
  702SOL    HW2 2106   2.195   1.086   0.649
  703SOL     OW 2107   4.028   1.919   1.058
  703SOL    HW1 2108   4.074   1.976   1.119
  703SOL    HW2 2109   4.000   1.977   0.987
  704SOL     OW 2110   4.676   1.602   1.097
  704SOL    HW1 2111   4.731   1.626   1.022
  704SOL    HW2 2112   4.592   1.645   1.080
  705SOL     OW 2113   0.908   4.501   4.578
  705SOL    HW1 2114   0.949   4.549   4.650
  705SOL    HW2 2115   0.876   4.420   4.619
  706SOL     OW 2116   5.162   0.539   0.882
  706SOL    HW1 2117   5.152   0.445   0.901
  706SOL    HW2 2118   5.191   0.542   0.791
  707SOL     OW 2119   0.928   4.276   2.427
  707SOL    HW1 2120   0.915   4.199   2.482
  707SOL    HW2 2121   0.919   4.350   2.486
  708SOL     OW 2122   2.325   4.153   3.568
  708SOL    HW1 2123   2.360   4.095   3.501
  708SOL    HW2 2124   2.332   4.103   3.650
  709SOL     OW 2125   4.451   5.112   1.498
  709SOL    HW1 2126   4.468   5.137   1.407
  709SOL    HW2 2127   4.367   5.067   1.495
  710SOL     OW 2128   3.582   1.463   4.581
  710SOL    HW1 2129   3.527   1.449   4.658
  710SOL    HW2 2130   3.537   1.416   4.510
  711SOL     OW 2131   4.113   1.868   3.731
  711SOL    HW1 2132   4.163   1.880   3.811
  711SOL    HW2 2133   4.064   1.949   3.719
  712SOL     OW 2134   2.861   0.920   4.197
  712SOL    HW1 2135   2.896   0.996   4.151
  712SOL    HW2 2136   2.789   0.954   4.250
  713SOL     OW 2137   2.958   3.475   4.000
  713SOL    HW1 2138   2.883   3.450   4.054
  713SOL    HW2 2139   2.971   3.401   3.941
  714SOL     OW 2140   1.336   0.424   3.337
  714SOL    HW1 2141   1.414   0.461   3.296
  714SOL    HW2 2142   1.353   0.430   3.431
  715SOL     OW 2143   3.081   3.829   4.290
  715SOL    HW1 2144   3.007   3.825   4.229
  715SOL    HW2 2145   3.088   3.740   4.324
  716SOL     OW 2146   1.991   2.108   4.314
  716SOL    HW1 2147   1.988   2.172   4.243
  716SOL    HW2 2148   1.908   2.121   4.361
  717SOL     OW 2149   2.538   2.282   4.148
  717SOL    HW1 2150   2.607   2.338   4.112
  717SOL    HW2 2151   2.456   2.326   4.124
  718SOL     OW 2152   2.530   5.042   3.496
  718SOL    HW1 2153   2.466   5.003   3.437
  718SOL    HW2 2154   2.480   5.068   3.573
  719SOL     OW 2155   1.771   3.597   0.134
  719SOL    HW1 2156   1.719   3.658   0.186
  719SOL    HW2 2157   1.767   3.632   0.045
  720SOL     OW 2158   3.648   4.557   2.248
  720SOL    HW1 2159   3.559   4.589   2.230
  720SOL    HW2 2160   3.701   4.589   2.175
  721SOL     OW 2161   1.476   4.979   5.010
  721SOL    HW1 2162   1.433   4.895   5.032
  721SOL    HW2 2163   1.491   4.974   4.916
  722SOL     OW 2164   2.860   1.725   2.519
  722SOL    HW1 2165   2.859   1.716   2.424
  722SOL    HW2 2166   2.945   1.692   2.546
  723SOL     OW 2167   2.875   3.942   4.431
  723SOL    HW1 2168   2.885   3.911   4.521
  723SOL    HW2 2169   2.955   3.915   4.387
  724SOL     OW 2170   3.744   1.120   2.515
  724SOL    HW1 2171   3.832   1.089   2.538
  724SOL    HW2 2172   3.710   1.053   2.456
  725SOL     OW 2173   4.834   3.748   1.820
  725SOL    HW1 2174   4.770   3.770   1.889
  725SOL    HW2 2175   4.817   3.813   1.751
  726SOL     OW 2176   1.649   0.412   3.803
  726SOL    HW1 2177   1.681   0.364   3.879
  726SOL    HW2 2178   1.710   0.485   3.793
  727SOL     OW 2179   2.334   3.873   0.129
  727SOL    HW1 2180   2.303   3.793   0.087
  727SOL    HW2 2181   2.260   3.933   0.127
  728SOL     OW 2182   2.673   2.881   4.780
  728SOL    HW1 2183   2.751   2.930   4.806
  728SOL    HW2 2184   2.638   2.929   4.705
  729SOL     OW 2185   0.382   3.349   0.948
  729SOL    HW1 2186   0.321   3.294   0.898
  729SOL    HW2 2187   0.372   3.320   1.039
  730SOL     OW 2188   3.248   3.292   0.447
  730SOL    HW1 2189   3.159   3.328   0.452
  730SOL    HW2 2190   3.241   3.220   0.384
  731SOL     OW 2191   4.922   4.647   3.824
  731SOL    HW1 2192   4.940   4.639   3.917
  731SOL    HW2 2193   4.989   4.593   3.782
  732SOL     OW 2194   2.762   0.358   2.180
  732SOL    HW1 2195   2.813   0.378   2.102
  732SOL    HW2 2196   2.708   0.436   2.195
  733SOL     OW 2197   1.438   4.546   3.182
  733SOL    HW1 2198   1.438   4.519   3.274
  733SOL    HW2 2199   1.512   4.499   3.143
  734SOL     OW 2200   4.676   4.343   4.371
  734SOL    HW1 2201   4.750   4.338   4.310
  734SOL    HW2 2202   4.643   4.253   4.376
  735SOL     OW 2203   0.901   2.907   2.392
  735SOL    HW1 2204   0.948   2.910   2.309
  735SOL    HW2 2205   0.939   2.978   2.444
  736SOL     OW 2206   1.272   5.202   4.113
  736SOL    HW1 2207   1.244   5.125   4.162
  736SOL    HW2 2208   1.190   5.246   4.088
  737SOL     OW 2209   0.850   3.273   0.202
  737SOL    HW1 2210   0.783   3.250   0.266
  737SOL    HW2 2211   0.824   3.360   0.171
  738SOL     OW 2212   3.950   0.483   4.292
  738SOL    HW1 2213   3.921   0.407   4.241
  738SOL    HW2 2214   4.032   0.510   4.251
  739SOL     OW 2215   1.756   4.094   3.499
  739SOL    HW1 2216   1.787   4.182   3.520
  739SOL    HW2 2217   1.835   4.044   3.480
  740SOL     OW 2218   5.056   2.733   2.282
  740SOL    HW1 2219   4.967   2.706   2.306
  740SOL    HW2 2220   5.099   2.751   2.365
  741SOL     OW 2221   4.934   5.159   4.344
  741SOL    HW1 2222   5.026   5.175   4.369
  741SOL    HW2 2223   4.926   5.199   4.257
  742SOL     OW 2224   0.058   1.829   2.367
  742SOL    HW1 2225   0.086   1.754   2.314
  742SOL    HW2 2226  -0.030   1.805   2.397
  743SOL     OW 2227   1.168   4.401   4.020
  743SOL    HW1 2228   1.113   4.406   4.098
  743SOL    HW2 2229   1.239   4.341   4.044
  744SOL     OW 2230   4.180   1.821   1.530
  744SOL    HW1 2231   4.224   1.897   1.492
  744SOL    HW2 2232   4.251   1.758   1.546
  745SOL     OW 2233   1.578   2.919   3.933
  745SOL    HW1 2234   1.612   2.996   3.980
  745SOL    HW2 2235   1.486   2.940   3.918
  746SOL     OW 2236   3.817   2.235   1.454
  746SOL    HW1 2237   3.891   2.295   1.438
  746SOL    HW2 2238   3.780   2.265   1.537
  747SOL     OW 2239   0.632   3.840   0.309
  747SOL    HW1 2240   0.675   3.762   0.273
  747SOL    HW2 2241   0.547   3.843   0.266
  748SOL     OW 2242   0.285   1.449   0.859
  748SOL    HW1 2243   0.364   1.489   0.894
  748SOL    HW2 2244   0.241   1.411   0.935
  749SOL     OW 2245   3.550   5.176   2.666
  749SOL    HW1 2246   3.469   5.146   2.709
  749SOL    HW2 2247   3.617   5.166   2.733
  750SOL     OW 2248   3.479   4.232   1.563
  750SOL    HW1 2249   3.453   4.207   1.475
  750SOL    HW2 2250   3.398   4.230   1.614
  751SOL     OW 2251   2.184   2.164   3.248
  751SOL    HW1 2252   2.164   2.099   3.316
  751SOL    HW2 2253   2.244   2.225   3.290
  752SOL     OW 2254   2.426   1.251   0.753
  752SOL    HW1 2255   2.479   1.172   0.760
  752SOL    HW2 2256   2.399   1.254   0.661
  753SOL     OW 2257   2.083   2.595   2.418
  753SOL    HW1 2258   2.014   2.652   2.453
  753SOL    HW2 2259   2.162   2.621   2.465
  754SOL     OW 2260   5.072   0.853   1.791
  754SOL    HW1 2261   5.152   0.850   1.739
  754SOL    HW2 2262   5.016   0.785   1.753
  755SOL     OW 2263   0.061   3.231   2.943
  755SOL    HW1 2264   0.152   3.228   2.913
  755SOL    HW2 2265   0.045   3.143   2.979
  756SOL     OW 2266   4.868   5.050   1.872
  756SOL    HW1 2267   4.909   5.137   1.871
  756SOL    HW2 2268   4.804   5.053   1.802
  757SOL     OW 2269   0.813   3.732   3.563
  757SOL    HW1 2270   0.763   3.800   3.517
  757SOL    HW2 2271   0.801   3.753   3.656
  758SOL     OW 2272   4.850   1.075   1.021
  758SOL    HW1 2273   4.903   1.134   0.967
  758SOL    HW2 2274   4.870   0.987   0.988
  759SOL     OW 2275   3.681   1.792   0.987
  759SOL    HW1 2276   3.608   1.837   1.030
  759SOL    HW2 2277   3.685   1.707   1.030
  760SOL     OW 2278   4.982   0.387   0.086
  760SOL    HW1 2279   4.925   0.332   0.140
  760SOL    HW2 2280   5.027   0.443   0.148
  761SOL     OW 2281   0.272   5.035   1.775
  761SOL    HW1 2282   0.234   5.123   1.779
  761SOL    HW2 2283   0.229   4.988   1.847
  762SOL     OW 2284   4.877   0.288   4.998
  762SOL    HW1 2285   4.916   0.340   5.068
  762SOL    HW2 2286   4.893   0.340   4.918
  763SOL     OW 2287   2.543   2.199   0.039
  763SOL    HW1 2288   2.525   2.105   0.047
  763SOL    HW2 2289   2.520   2.220  -0.051
  764SOL     OW 2290   0.430   2.220   3.112
  764SOL    HW1 2291   0.381   2.178   3.182
  764SOL    HW2 2292   0.389   2.189   3.032
  765SOL     OW 2293   3.804   2.858   0.350
  765SOL    HW1 2294   3.746   2.935   0.344
  765SOL    HW2 2295   3.750   2.785   0.319
  766SOL     OW 2296   2.445   3.229   0.346
  766SOL    HW1 2297   2.469   3.140   0.373
  766SOL    HW2 2298   2.441   3.279   0.427
  767SOL     OW 2299   2.198   0.561   0.199
  767SOL    HW1 2300   2.179   0.643   0.244
  767SOL    HW2 2301   2.172   0.492   0.261
  768SOL     OW 2302   2.277   3.358   2.648
  768SOL    HW1 2303   2.286   3.324   2.559
  768SOL    HW2 2304   2.281   3.280   2.704
  769SOL     OW 2305   3.905   4.335   4.520
  769SOL    HW1 2306   3.813   4.357   4.530
  769SOL    HW2 2307   3.908   4.276   4.445
  770SOL     OW 2308   1.919   3.386   2.802
  770SOL    HW1 2309   1.913   3.440   2.723
  770SOL    HW2 2310   2.011   3.390   2.827
  771SOL     OW 2311   0.734   2.478   4.240
  771SOL    HW1 2312   0.719   2.389   4.273
  771SOL    HW2 2313   0.826   2.496   4.258
  772SOL     OW 2314   1.379   1.577   3.168
  772SOL    HW1 2315   1.335   1.649   3.213
  772SOL    HW2 2316   1.340   1.576   3.081
  773SOL     OW 2317   2.723   3.262   4.694
  773SOL    HW1 2318   2.767   3.229   4.772
  773SOL    HW2 2319   2.637   3.219   4.694
  774SOL     OW 2320   4.342   1.384   3.754
  774SOL    HW1 2321   4.309   1.395   3.665
  774SOL    HW2 2322   4.302   1.455   3.804
  775SOL     OW 2323   1.300   1.265   3.795
  775SOL    HW1 2324   1.268   1.250   3.884
  775SOL    HW2 2325   1.394   1.246   3.799
  776SOL     OW 2326   0.313   3.823   0.974
  776SOL    HW1 2327   0.351   3.909   0.960
  776SOL    HW2 2328   0.307   3.815   1.070
  777SOL     OW 2329   0.002   1.555   3.097
  777SOL    HW1 2330  -0.025   1.633   3.144
  777SOL    HW2 2331   0.060   1.509   3.158
  778SOL     OW 2332   0.999   5.100   4.856
  778SOL    HW1 2333   0.966   5.173   4.804
  778SOL    HW2 2334   0.929   5.081   4.918
  779SOL     OW 2335   2.165   2.070   0.531
  779SOL    HW1 2336   2.198   2.101   0.447
  779SOL    HW2 2337   2.183   2.141   0.592
  780SOL     OW 2338   3.452   4.886   3.269
  780SOL    HW1 2339   3.384   4.950   3.247
  780SOL    HW2 2340   3.422   4.805   3.227
  781SOL     OW 2341   3.027   1.351   0.202
  781SOL    HW1 2342   2.993   1.281   0.259
  781SOL    HW2 2343   2.960   1.361   0.134
  782SOL     OW 2344   2.144   3.640   1.420
  782SOL    HW1 2345   2.121   3.553   1.451
  782SOL    HW2 2346   2.075   3.663   1.358
  783SOL     OW 2347   3.462   3.880   1.123
  783SOL    HW1 2348   3.419   3.965   1.133
  783SOL    HW2 2349   3.496   3.880   1.033
  784SOL     OW 2350   3.342   2.640   4.058
  784SOL    HW1 2351   3.408   2.702   4.089
  784SOL    HW2 2352   3.353   2.563   4.115
  785SOL     OW 2353   1.879   0.149   0.302
  785SOL    HW1 2354   1.788   0.149   0.332
  785SOL    HW2 2355   1.881   0.089   0.228
  786SOL     OW 2356   2.305   4.988   5.139
  786SOL    HW1 2357   2.344   5.075   5.142
  786SOL    HW2 2358   2.211   5.003   5.134
  787SOL     OW 2359   0.663   2.765   2.138
  787SOL    HW1 2360   0.724   2.697   2.108
  787SOL    HW2 2361   0.601   2.717   2.193
  788SOL     OW 2362   2.662   2.747   2.740
  788SOL    HW1 2363   2.727   2.795   2.790
  788SOL    HW2 2364   2.655   2.662   2.783
  789SOL     OW 2365   4.313   4.407   3.392
  789SOL    HW1 2366   4.331   4.488   3.343
  789SOL    HW2 2367   4.287   4.344   3.324
  790SOL     OW 2368   0.154   2.114   3.343
  790SOL    HW1 2369   0.204   2.161   3.410
  790SOL    HW2 2370   0.062   2.136   3.362
  791SOL     OW 2371   3.422   2.434   1.332
  791SOL    HW1 2372   3.381   2.515   1.303
  791SOL    HW2 2373   3.516   2.453   1.327
  792SOL     OW 2374   3.119   4.216   1.256
  792SOL    HW1 2375   3.191   4.211   1.193
  792SOL    HW2 2376   3.130   4.301   1.299
  793SOL     OW 2377   2.714   2.772   1.193
  793SOL    HW1 2378   2.689   2.864   1.201
  793SOL    HW2 2379   2.656   2.725   1.253
  794SOL     OW 2380   4.814   1.001   4.948
  794SOL    HW1 2381   4.793   1.038   4.862
  794SOL    HW2 2382   4.907   1.019   4.960
  795SOL     OW 2383   3.555   3.819   3.892
  795SOL    HW1 2384   3.587   3.859   3.812
  795SOL    HW2 2385   3.613   3.851   3.961
  796SOL     OW 2386   2.432   0.060   2.678
  796SOL    HW1 2387   2.526   0.045   2.676
  796SOL    HW2 2388   2.416   0.102   2.762
  797SOL     OW 2389   4.161   1.385   4.332
  797SOL    HW1 2390   4.210   1.322   4.385
  797SOL    HW2 2391   4.192   1.471   4.362
  798SOL     OW 2392   2.267   2.631   1.962
  798SOL    HW1 2393   2.268   2.707   2.020
  798SOL    HW2 2394   2.203   2.653   1.894
  799SOL     OW 2395   4.108   1.186   0.965
  799SOL    HW1 2396   4.110   1.251   1.035
  799SOL    HW2 2397   4.181   1.128   0.984
  800SOL     OW 2398   4.794   4.312   2.763
  800SOL    HW1 2399   4.703   4.342   2.758
  800SOL    HW2 2400   4.825   4.348   2.846
  801SOL     OW 2401   0.034   3.222   0.629
  801SOL    HW1 2402  -0.027   3.204   0.700
  801SOL    HW2 2403   0.120   3.199   0.665
  802SOL     OW 2404   3.866   3.835   0.561
  802SOL    HW1 2405   3.866   3.836   0.657
  802SOL    HW2 2406   3.866   3.928   0.536
  803SOL     OW 2407   2.053   1.956   1.788
  803SOL    HW1 2408   2.127   1.968   1.848
  803SOL    HW2 2409   2.021   1.868   1.807
  804SOL     OW 2410   1.816   1.232   0.797
  804SOL    HW1 2411   1.860   1.298   0.851
  804SOL    HW2 2412   1.832   1.260   0.707
  805SOL     OW 2413   1.345   4.017   1.007
  805SOL    HW1 2414   1.375   3.993   0.920
  805SOL    HW2 2415   1.259   3.974   1.015
  806SOL     OW 2416   5.141   2.639   0.859
  806SOL    HW1 2417   5.199   2.648   0.784
  806SOL    HW2 2418   5.063   2.596   0.824
  807SOL     OW 2419   1.748   2.479   5.011
  807SOL    HW1 2420   1.711   2.395   4.986
  807SOL    HW2 2421   1.762   2.472   5.105
  808SOL     OW 2422   1.700   2.913   0.861
  808SOL    HW1 2423   1.760   2.883   0.929
  808SOL    HW2 2424   1.649   2.835   0.839
  809SOL     OW 2425   4.273   1.018   2.278
  809SOL    HW1 2426   4.335   1.073   2.325
  809SOL    HW2 2427   4.309   0.929   2.287
  810SOL     OW 2428   1.817   4.830   4.582
  810SOL    HW1 2429   1.851   4.919   4.569
  810SOL    HW2 2430   1.725   4.835   4.556
  811SOL     OW 2431   0.914   1.931   1.288
  811SOL    HW1 2432   0.877   1.952   1.202
  811SOL    HW2 2433   0.848   1.962   1.351
  812SOL     OW 2434   4.367   3.165   3.328
  812SOL    HW1 2435   4.434   3.098   3.319
  812SOL    HW2 2436   4.307   3.132   3.395
  813SOL     OW 2437   1.919   0.432   2.470
  813SOL    HW1 2438   1.910   0.343   2.435
  813SOL    HW2 2439   1.850   0.482   2.426
  814SOL     OW 2440   2.349   4.263   1.963
  814SOL    HW1 2441   2.413   4.256   1.892
  814SOL    HW2 2442   2.376   4.195   2.025
  815SOL     OW 2443   0.768   4.047   0.454
  815SOL    HW1 2444   0.722   4.127   0.481
  815SOL    HW2 2445   0.706   4.001   0.398
  816SOL     OW 2446   5.129   0.366   1.802
  816SOL    HW1 2447   5.208   0.418   1.788
  816SOL    HW2 2448   5.085   0.409   1.876
  817SOL     OW 2449   2.317   0.060   4.790
  817SOL    HW1 2450   2.405   0.080   4.820
  817SOL    HW2 2451   2.260   0.111   4.847
  818SOL     OW 2452   3.161   4.617   0.576
  818SOL    HW1 2453   3.206   4.684   0.525
  818SOL    HW2 2454   3.129   4.663   0.654
  819SOL     OW 2455   1.222   5.066   3.559
  819SOL    HW1 2456   1.250   4.993   3.614
  819SOL    HW2 2457   1.171   5.024   3.489
  820SOL     OW 2458   1.108   1.926   2.604
  820SOL    HW1 2459   1.027   1.977   2.597
  820SOL    HW2 2460   1.124   1.894   2.516
  821SOL     OW 2461   1.227   1.221   2.096
  821SOL    HW1 2462   1.244   1.311   2.124
  821SOL    HW2 2463   1.222   1.171   2.178
  822SOL     OW 2464   1.237   1.595   0.805
  822SOL    HW1 2465   1.306   1.568   0.745
  822SOL    HW2 2466   1.200   1.513   0.838
  823SOL     OW 2467   4.485   4.259   3.560
  823SOL    HW1 2468   4.436   4.207   3.624
  823SOL    HW2 2469   4.418   4.290   3.499
  824SOL     OW 2470   3.605   0.724   1.905
  824SOL    HW1 2471   3.509   0.730   1.907
  824SOL    HW2 2472   3.623   0.631   1.899
  825SOL     OW 2473   1.941   0.263   3.719
  825SOL    HW1 2474   1.887   0.190   3.689
  825SOL    HW2 2475   1.881   0.338   3.720
  826SOL     OW 2476   0.971   1.645   2.133
  826SOL    HW1 2477   0.904   1.576   2.134
  826SOL    HW2 2478   0.966   1.685   2.220
  827SOL     OW 2479   4.745   3.808   0.308
  827SOL    HW1 2480   4.761   3.739   0.372
  827SOL    HW2 2481   4.747   3.889   0.359
  828SOL     OW 2482   4.472   1.235   2.348
  828SOL    HW1 2483   4.530   1.167   2.314
  828SOL    HW2 2484   4.510   1.317   2.317
  829SOL     OW 2485   4.049   4.036   3.229
  829SOL    HW1 2486   4.043   3.991   3.144
  829SOL    HW2 2487   3.961   4.068   3.246
  830SOL     OW 2488   4.189   1.388   3.515
  830SOL    HW1 2489   4.188   1.424   3.426
  830SOL    HW2 2490   4.193   1.293   3.501
  831SOL     OW 2491   1.412   3.218   2.801
  831SOL    HW1 2492   1.451   3.303   2.822
  831SOL    HW2 2493   1.472   3.154   2.840
  832SOL     OW 2494   1.985   3.694   2.173
  832SOL    HW1 2495   1.976   3.739   2.257
  832SOL    HW2 2496   1.920   3.735   2.116
  833SOL     OW 2497   3.284   5.023   4.148
  833SOL    HW1 2498   3.323   4.952   4.098
  833SOL    HW2 2499   3.358   5.075   4.178
  834SOL     OW 2500   4.532   0.090   3.301
  834SOL    HW1 2501   4.536   0.071   3.394
  834SOL    HW2 2502   4.473   0.165   3.294
  835SOL     OW 2503   1.749   0.465   2.877
  835SOL    HW1 2504   1.830   0.425   2.907
  835SOL    HW2 2505   1.768   0.559   2.875
  836SOL     OW 2506   5.020   2.565   3.029
  836SOL    HW1 2507   5.042   2.472   3.017
  836SOL    HW2 2508   5.105   2.609   3.032
  837SOL     OW 2509   2.626   2.395   0.189
  837SOL    HW1 2510   2.691   2.439   0.134
  837SOL    HW2 2511   2.589   2.327   0.133
  838SOL     OW 2512   0.305   3.419   5.099
  838SOL    HW1 2513   0.243   3.363   5.052
  838SOL    HW2 2514   0.367   3.357   5.139
  839SOL     OW 2515   1.065   2.378   3.914
  839SOL    HW1 2516   1.048   2.284   3.902
  839SOL    HW2 2517   0.979   2.418   3.911
  840SOL     OW 2518   2.870   3.004   2.560
  840SOL    HW1 2519   2.853   2.910   2.557
  840SOL    HW2 2520   2.816   3.036   2.633
  841SOL     OW 2521   1.975   2.637   4.931
  841SOL    HW1 2522   2.055   2.596   4.964
  841SOL    HW2 2523   1.907   2.571   4.945
  842SOL     OW 2524   3.383   1.028   3.909
  842SOL    HW1 2525   3.298   1.057   3.942
  842SOL    HW2 2526   3.417   1.103   3.860
  843SOL     OW 2527   3.764   5.036   2.805
  843SOL    HW1 2528   3.731   4.949   2.786
  843SOL    HW2 2529   3.827   5.054   2.735
  844SOL     OW 2530   4.358   1.609   2.241
  844SOL    HW1 2531   4.327   1.584   2.329
  844SOL    HW2 2532   4.289   1.577   2.182
  845SOL     OW 2533   1.848   1.029   1.073
  845SOL    HW1 2534   1.923   0.988   1.031
  845SOL    HW2 2535   1.772   0.988   1.032
  846SOL     OW 2536   1.049   1.160   4.350
  846SOL    HW1 2537   1.139   1.149   4.383
  846SOL    HW2 2538   1.044   1.099   4.276
  847SOL     OW 2539   1.087   2.703   4.815
  847SOL    HW1 2540   0.998   2.675   4.836
  847SOL    HW2 2541   1.109   2.765   4.884
  848SOL     OW 2542   4.162   3.248   1.226
  848SOL    HW1 2543   4.254   3.271   1.214
  848SOL    HW2 2544   4.164   3.176   1.290
  849SOL     OW 2545   0.356   3.570   2.885
  849SOL    HW1 2546   0.367   3.631   2.812
  849SOL    HW2 2547   0.291   3.507   2.854
  850SOL     OW 2548   2.411   1.883   2.923
  850SOL    HW1 2549   2.407   1.960   2.867
  850SOL    HW2 2550   2.502   1.879   2.953
  851SOL     OW 2551   1.999   1.770   3.646
  851SOL    HW1 2552   1.958   1.730   3.723
  851SOL    HW2 2553   1.928   1.818   3.604
  852SOL     OW 2554   3.296   4.156   4.183
  852SOL    HW1 2555   3.253   4.071   4.182
  852SOL    HW2 2556   3.380   4.140   4.139
  853SOL     OW 2557   1.765   0.512   0.388
  853SOL    HW1 2558   1.676   0.482   0.369
  853SOL    HW2 2559   1.782   0.484   0.478
  854SOL     OW 2560   1.955   3.319   1.751
  854SOL    HW1 2561   1.870   3.360   1.766
  854SOL    HW2 2562   1.987   3.360   1.670
  855SOL     OW 2563   1.456   2.872   4.722
  855SOL    HW1 2564   1.485   2.874   4.813
  855SOL    HW2 2565   1.397   2.947   4.714
  856SOL     OW 2566   3.500   4.043   5.012
  856SOL    HW1 2567   3.494   4.080   4.924
  856SOL    HW2 2568   3.520   4.118   5.068
  857SOL     OW 2569   3.531   0.301   3.284
  857SOL    HW1 2570   3.596   0.244   3.244
  857SOL    HW2 2571   3.549   0.295   3.378
  858SOL     OW 2572   1.937   4.296   3.230
  858SOL    HW1 2573   1.923   4.204   3.211
  858SOL    HW2 2574   2.028   4.300   3.262
  859SOL     OW 2575   2.455   0.660   3.297
  859SOL    HW1 2576   2.472   0.606   3.374
  859SOL    HW2 2577   2.474   0.749   3.325
  860SOL     OW 2578   4.800   4.346   4.624
  860SOL    HW1 2579   4.765   4.422   4.670
  860SOL    HW2 2580   4.730   4.318   4.566
  861SOL     OW 2581   0.755   4.573   2.107
  861SOL    HW1 2582   0.681   4.529   2.067
  861SOL    HW2 2583   0.808   4.502   2.144
  862SOL     OW 2584   0.412   4.899   3.768
  862SOL    HW1 2585   0.364   4.973   3.804
  862SOL    HW2 2586   0.455   4.933   3.690
  863SOL     OW 2587   0.509   3.789   2.115
  863SOL    HW1 2588   0.512   3.884   2.120
  863SOL    HW2 2589   0.594   3.764   2.079
  864SOL     OW 2590   3.099   4.708   2.434
  864SOL    HW1 2591   3.060   4.711   2.347
  864SOL    HW2 2592   3.169   4.774   2.432
  865SOL     OW 2593   3.218   4.252   1.669
  865SOL    HW1 2594   3.183   4.170   1.632
  865SOL    HW2 2595   3.221   4.237   1.763
  866SOL     OW 2596   3.022   2.249   0.120
  866SOL    HW1 2597   3.029   2.289   0.207
  866SOL    HW2 2598   2.940   2.200   0.122
  867SOL     OW 2599   1.803   3.494   4.270
  867SOL    HW1 2600   1.821   3.537   4.354
  867SOL    HW2 2601   1.785   3.403   4.293
  868SOL     OW 2602   0.478   1.123   3.963
  868SOL    HW1 2603   0.403   1.083   4.006
  868SOL    HW2 2604   0.546   1.125   4.031
  869SOL     OW 2605   4.913   4.057   2.746
  869SOL    HW1 2606   4.892   4.150   2.749
  869SOL    HW2 2607   4.895   4.032   2.655
  870SOL     OW 2608   3.755   2.000   1.605
  870SOL    HW1 2609   3.792   1.913   1.589
  870SOL    HW2 2610   3.790   2.054   1.535
  871SOL     OW 2611   4.813   4.383   3.016
  871SOL    HW1 2612   4.718   4.376   3.014
  871SOL    HW2 2613   4.830   4.474   3.040
  872SOL     OW 2614   3.446   0.369   4.352
  872SOL    HW1 2615   3.415   0.369   4.261
  872SOL    HW2 2616   3.438   0.460   4.381
  873SOL     OW 2617   4.280   2.516   2.116
  873SOL    HW1 2618   4.288   2.611   2.107
  873SOL    HW2 2619   4.370   2.484   2.104
  874SOL     OW 2620   4.315   4.708   2.733
  874SOL    HW1 2621   4.307   4.623   2.776
  874SOL    HW2 2622   4.308   4.688   2.640
  875SOL     OW 2623   0.231   2.716   2.343
  875SOL    HW1 2624   0.317   2.679   2.322
  875SOL    HW2 2625   0.196   2.656   2.409
  876SOL     OW 2626   0.350   5.108   1.137
  876SOL    HW1 2627   0.407   5.036   1.110
  876SOL    HW2 2628   0.290   5.069   1.200
  877SOL     OW 2629   4.861   0.894   1.300
  877SOL    HW1 2630   4.772   0.882   1.332
  877SOL    HW2 2631   4.867   0.987   1.277
  878SOL     OW 2632   5.114   3.171   3.624
  878SOL    HW1 2633   5.207   3.187   3.639
  878SOL    HW2 2634   5.069   3.240   3.673
  879SOL     OW 2635   4.922   2.473   2.106
  879SOL    HW1 2636   4.878   2.406   2.158
  879SOL    HW2 2637   5.014   2.448   2.108
  880SOL     OW 2638   1.927   1.175   0.002
  880SOL    HW1 2639   1.883   1.220   0.074
  880SOL    HW2 2640   2.014   1.215  -0.001
  881SOL     OW 2641   1.103   3.572   4.380
  881SOL    HW1 2642   1.164   3.614   4.441
  881SOL    HW2 2643   1.118   3.615   4.297
  882SOL     OW 2644   4.000   2.516   2.606
  882SOL    HW1 2645   3.929   2.544   2.549
  882SOL    HW2 2646   4.076   2.510   2.548
  883SOL     OW 2647   5.148   3.926   3.123
  883SOL    HW1 2648   5.189   3.970   3.197
  883SOL    HW2 2649   5.197   3.843   3.115
  884SOL     OW 2650   0.725   1.488   3.322
  884SOL    HW1 2651   0.757   1.565   3.368
  884SOL    HW2 2652   0.790   1.420   3.340
  885SOL     OW 2653   4.219   2.930   1.775
  885SOL    HW1 2654   4.181   2.991   1.839
  885SOL    HW2 2655   4.296   2.895   1.819
  886SOL     OW 2656   3.343   2.730   4.399
  886SOL    HW1 2657   3.362   2.637   4.412
  886SOL    HW2 2658   3.429   2.771   4.391
  887SOL     OW 2659   3.513   4.055   4.327
  887SOL    HW1 2660   3.417   4.051   4.330
  887SOL    HW2 2661   3.532   4.138   4.284
  888SOL     OW 2662   0.457   2.643   2.640
  888SOL    HW1 2663   0.503   2.590   2.705
  888SOL    HW2 2664   0.404   2.580   2.591
  889SOL     OW 2665   2.367   4.025   3.800
  889SOL    HW1 2666   2.431   4.079   3.846
  889SOL    HW2 2667   2.397   3.935   3.813
  890SOL     OW 2668   3.001   2.367   4.004
  890SOL    HW1 2669   2.990   2.275   4.031
  890SOL    HW2 2670   3.044   2.409   4.078
  891SOL     OW 2671   1.617   2.452   2.815
  891SOL    HW1 2672   1.535   2.465   2.767
  891SOL    HW2 2673   1.682   2.433   2.747
  892SOL     OW 2674   3.522   3.104   0.394
  892SOL    HW1 2675   3.512   3.019   0.351
  892SOL    HW2 2676   3.611   3.132   0.373
  893SOL     OW 2677   0.307   4.507   4.886
  893SOL    HW1 2678   0.367   4.482   4.816
  893SOL    HW2 2679   0.295   4.428   4.938
  894SOL     OW 2680   3.692   0.104   2.986
  894SOL    HW1 2681   3.695   0.024   3.039
  894SOL    HW2 2682   3.701   0.175   3.050
  895SOL     OW 2683   3.577   2.445   3.234
  895SOL    HW1 2684   3.606   2.372   3.180
  895SOL    HW2 2685   3.617   2.522   3.192
  896SOL     OW 2686   2.373   2.479   2.362
  896SOL    HW1 2687   2.285   2.445   2.349
  896SOL    HW2 2688   2.402   2.506   2.275
  897SOL     OW 2689   3.046   1.503   4.276
  897SOL    HW1 2690   2.974   1.548   4.320
  897SOL    HW2 2691   3.080   1.441   4.340
  898SOL     OW 2692   3.521   0.112   0.405
  898SOL    HW1 2693   3.490   0.194   0.442
  898SOL    HW2 2694   3.458   0.093   0.334
  899SOL     OW 2695   3.261   0.251   3.285
  899SOL    HW1 2696   3.264   0.156   3.298
  899SOL    HW2 2697   3.353   0.277   3.279
  900SOL     OW 2698   4.975   3.057   1.965
  900SOL    HW1 2699   5.017   3.140   1.946
  900SOL    HW2 2700   5.043   3.004   2.006
  901SOL     OW 2701   1.949   2.341   3.841
  901SOL    HW1 2702   1.917   2.301   3.760
  901SOL    HW2 2703   1.935   2.435   3.829
  902SOL     OW 2704   1.690   2.448   0.126
  902SOL    HW1 2705   1.669   2.394   0.201
  902SOL    HW2 2706   1.746   2.518   0.161
  903SOL     OW 2707   4.495   1.821   1.097
  903SOL    HW1 2708   4.554   1.892   1.070
  903SOL    HW2 2709   4.486   1.832   1.192
  904SOL     OW 2710   3.842   3.987   2.293
  904SOL    HW1 2711   3.817   3.952   2.378
  904SOL    HW2 2712   3.766   3.972   2.237
  905SOL     OW 2713   1.836   1.692   2.695
  905SOL    HW1 2714   1.863   1.632   2.626
  905SOL    HW2 2715   1.915   1.741   2.717
  906SOL     OW 2716   3.085   2.085   5.050
  906SOL    HW1 2717   3.068   2.114   5.139
  906SOL    HW2 2718   2.999   2.061   5.015
  907SOL     OW 2719   3.183   0.726   1.162
  907SOL    HW1 2720   3.104   0.774   1.184
  907SOL    HW2 2721   3.152   0.641   1.131
  908SOL     OW 2722   0.263   0.961   2.981
  908SOL    HW1 2723   0.206   1.030   3.015
  908SOL    HW2 2724   0.350   1.000   2.983
  909SOL     OW 2725   1.031   4.184   2.191
  909SOL    HW1 2726   0.979   4.219   2.263
  909SOL    HW2 2727   0.980   4.109   2.159
  910SOL     OW 2728   2.010   1.384   3.656
  910SOL    HW1 2729   1.986   1.376   3.563
  910SOL    HW2 2730   1.930   1.361   3.703
  911SOL     OW 2731   0.529   0.743   5.148
  911SOL    HW1 2732   0.526   0.808   5.218
  911SOL    HW2 2733   0.438   0.730   5.123
  912SOL     OW 2734   2.426   3.793   2.949
  912SOL    HW1 2735   2.368   3.861   2.914
  912SOL    HW2 2736   2.387   3.711   2.920
  913SOL     OW 2737   1.150   2.775   3.887
  913SOL    HW1 2738   1.161   2.729   3.971
  913SOL    HW2 2739   1.204   2.854   3.897
  914SOL     OW 2740   2.450   1.694   3.717
  914SOL    HW1 2741   2.366   1.650   3.727
  914SOL    HW2 2742   2.434   1.785   3.744
  915SOL     OW 2743   1.191   2.113   3.227
  915SOL    HW1 2744   1.103   2.138   3.201
  915SOL    HW2 2745   1.200   2.147   3.316
  916SOL     OW 2746   2.999   4.165   4.642
  916SOL    HW1 2747   2.917   4.190   4.600
  916SOL    HW2 2748   3.065   4.217   4.597
  917SOL     OW 2749   3.789   4.344   3.143
  917SOL    HW1 2750   3.807   4.388   3.226
  917SOL    HW2 2751   3.798   4.250   3.164
  918SOL     OW 2752   4.341   3.759   2.331
  918SOL    HW1 2753   4.394   3.723   2.260
  918SOL    HW2 2754   4.282   3.821   2.288
  919SOL     OW 2755   2.825   1.686   1.246
  919SOL    HW1 2756   2.910   1.726   1.232
  919SOL    HW2 2757   2.829   1.651   1.335
  920SOL     OW 2758  -0.031   3.630   4.031
  920SOL    HW1 2759   0.042   3.682   3.996
  920SOL    HW2 2760   0.008   3.546   4.053
  921SOL     OW 2761   2.786   3.928   2.659
  921SOL    HW1 2762   2.768   3.943   2.751
  921SOL    HW2 2763   2.820   4.012   2.627
  922SOL     OW 2764   1.164   0.627   0.570
  922SOL    HW1 2765   1.099   0.692   0.599
  922SOL    HW2 2766   1.126   0.543   0.594
  923SOL     OW 2767   1.388   2.809   2.602
  923SOL    HW1 2768   1.319   2.745   2.614
  923SOL    HW2 2769   1.344   2.884   2.560
  924SOL     OW 2770   3.890   2.949   0.587
  924SOL    HW1 2771   3.824   3.011   0.615
  924SOL    HW2 2772   3.852   2.904   0.512
  925SOL     OW 2773   1.408   2.591   2.291
  925SOL    HW1 2774   1.450   2.655   2.233
  925SOL    HW2 2775   1.429   2.506   2.251
  926SOL     OW 2776   3.529   3.398   1.312
  926SOL    HW1 2777   3.441   3.360   1.317
  926SOL    HW2 2778   3.588   3.323   1.322
  927SOL     OW 2779   3.402   4.597   5.107
  927SOL    HW1 2780   3.336   4.665   5.123
  927SOL    HW2 2781   3.486   4.644   5.111
  928SOL     OW 2782   1.427   2.601   0.225
  928SOL    HW1 2783   1.447   2.675   0.282
  928SOL    HW2 2784   1.512   2.561   0.207
  929SOL     OW 2785   4.836   2.038   1.559
  929SOL    HW1 2786   4.866   2.126   1.582
  929SOL    HW2 2787   4.814   1.998   1.643
  930SOL     OW 2788   5.027   2.957   4.819
  930SOL    HW1 2789   4.972   3.029   4.851
  930SOL    HW2 2790   4.966   2.883   4.812
  931SOL     OW 2791   0.449   4.230   4.904
  931SOL    HW1 2792   0.526   4.194   4.949
  931SOL    HW2 2793   0.375   4.206   4.960
  932SOL     OW 2794   3.373   4.662   3.144
  932SOL    HW1 2795   3.319   4.625   3.214
  932SOL    HW2 2796   3.435   4.592   3.123
  933SOL     OW 2797   0.300   3.125   4.461
  933SOL    HW1 2798   0.295   3.186   4.535
  933SOL    HW2 2799   0.332   3.179   4.388
  934SOL     OW 2800   4.595   2.926   2.225
  934SOL    HW1 2801   4.511   2.971   2.214
  934SOL    HW2 2802   4.585   2.874   2.304
  935SOL     OW 2803   1.017   1.942   3.614
  935SOL    HW1 2804   1.005   1.953   3.519
  935SOL    HW2 2805   1.036   1.849   3.625
  936SOL     OW 2806   1.709   3.512   3.554
  936SOL    HW1 2807   1.804   3.507   3.553
  936SOL    HW2 2808   1.680   3.432   3.510
  937SOL     OW 2809   1.916   2.867   4.810
  937SOL    HW1 2810   1.957   2.809   4.874
  937SOL    HW2 2811   1.911   2.952   4.855
  938SOL     OW 2812   2.423   1.132   4.114
  938SOL    HW1 2813   2.430   1.177   4.198
  938SOL    HW2 2814   2.332   1.144   4.087
  939SOL     OW 2815   4.844   0.374   0.472
  939SOL    HW1 2816   4.922   0.382   0.417
  939SOL    HW2 2817   4.830   0.279   0.479
  940SOL     OW 2818   4.706   3.312   2.831
  940SOL    HW1 2819   4.671   3.382   2.776
  940SOL    HW2 2820   4.754   3.357   2.901
  941SOL     OW 2821   1.104   0.124   0.461
  941SOL    HW1 2822   1.182   0.075   0.436
  941SOL    HW2 2823   1.076   0.082   0.543
  942SOL     OW 2824   2.667   1.018   2.135
  942SOL    HW1 2825   2.652   1.064   2.217
  942SOL    HW2 2826   2.668   1.086   2.068
  943SOL     OW 2827   3.102   5.153   0.301
  943SOL    HW1 2828   3.087   5.200   0.219
  943SOL    HW2 2829   3.112   5.062   0.276
  944SOL     OW 2830   1.572   3.770   1.618
  944SOL    HW1 2831   1.502   3.817   1.664
  944SOL    HW2 2832   1.612   3.714   1.684
  945SOL     OW 2833   1.340   0.692   3.524
  945SOL    HW1 2834   1.409   0.749   3.490
  945SOL    HW2 2835   1.382   0.643   3.595
  946SOL     OW 2836   3.138   5.199   3.024
  946SOL    HW1 2837   3.135   5.178   3.117
  946SOL    HW2 2838   3.050   5.179   2.992
  947SOL     OW 2839   4.129   2.006   2.531
  947SOL    HW1 2840   4.190   2.077   2.553
  947SOL    HW2 2841   4.083   1.988   2.613
  948SOL     OW 2842   4.879   1.124   2.329
  948SOL    HW1 2843   4.921   1.190   2.274
  948SOL    HW2 2844   4.786   1.129   2.305
  949SOL     OW 2845   4.199   2.050   0.442
  949SOL    HW1 2846   4.202   1.971   0.495
  949SOL    HW2 2847   4.162   2.117   0.500
  950SOL     OW 2848   0.426   2.616   4.746
  950SOL    HW1 2849   0.380   2.666   4.814
  950SOL    HW2 2850   0.499   2.672   4.720
  951SOL     OW 2851   2.656   1.806   0.529
  951SOL    HW1 2852   2.599   1.752   0.583
  951SOL    HW2 2853   2.672   1.754   0.451
  952SOL     OW 2854   4.707   0.954   5.198
  952SOL    HW1 2855   4.750   0.966   5.113
  952SOL    HW2 2856   4.669   0.866   5.194
  953SOL     OW 2857   0.723   3.207   3.868
  953SOL    HW1 2858   0.680   3.122   3.852
  953SOL    HW2 2859   0.814   3.192   3.841
  954SOL     OW 2860   4.420   2.468   4.886
  954SOL    HW1 2861   4.410   2.373   4.882
  954SOL    HW2 2862   4.509   2.482   4.918
  955SOL     OW 2863   4.802   3.595   1.138
  955SOL    HW1 2864   4.792   3.640   1.222
  955SOL    HW2 2865   4.863   3.649   1.089
  956SOL     OW 2866   4.341   2.023   3.699
  956SOL    HW1 2867   4.324   1.941   3.653
  956SOL    HW2 2868   4.293   2.016   3.781
  957SOL     OW 2869   5.174   4.362   4.975
  957SOL    HW1 2870   5.107   4.332   4.914
  957SOL    HW2 2871   5.187   4.454   4.953
  958SOL     OW 2872   3.203   1.119   0.615
  958SOL    HW1 2873   3.223   1.135   0.707
  958SOL    HW2 2874   3.228   1.201   0.571
  959SOL     OW 2875   2.318   1.242   1.369
  959SOL    HW1 2876   2.374   1.280   1.301
  959SOL    HW2 2877   2.236   1.223   1.324
  960SOL     OW 2878   1.368   1.111   0.929
  960SOL    HW1 2879   1.305   1.107   1.001
  960SOL    HW2 2880   1.351   1.031   0.878
  961SOL     OW 2881   3.146   2.952   3.853
  961SOL    HW1 2882   3.106   3.011   3.789
  961SOL    HW2 2883   3.236   2.985   3.863
  962SOL     OW 2884   0.720   1.961   3.380
  962SOL    HW1 2885   0.745   1.869   3.390
  962SOL    HW2 2886   0.635   1.958   3.336
  963SOL     OW 2887   2.655   2.841   0.059
  963SOL    HW1 2888   2.645   2.860   0.152
  963SOL    HW2 2889   2.748   2.822   0.048
  964SOL     OW 2890   1.852   4.439   2.490
  964SOL    HW1 2891   1.773   4.417   2.441
  964SOL    HW2 2892   1.892   4.354   2.510
  965SOL     OW 2893   3.556   2.098   0.130
  965SOL    HW1 2894   3.563   2.033   0.061
  965SOL    HW2 2895   3.464   2.125   0.129
  966SOL     OW 2896   2.879   0.663   3.718
  966SOL    HW1 2897   2.836   0.748   3.710
  966SOL    HW2 2898   2.817   0.600   3.681
  967SOL     OW 2899   3.099   0.971   3.931
  967SOL    HW1 2900   3.027   0.909   3.922
  967SOL    HW2 2901   3.066   1.052   3.891
  968SOL     OW 2902   5.016   1.497   1.443
  968SOL    HW1 2903   4.976   1.541   1.368
  968SOL    HW2 2904   5.027   1.407   1.414
  969SOL     OW 2905   4.575   4.739   1.034
  969SOL    HW1 2906   4.516   4.707   1.102
  969SOL    HW2 2907   4.639   4.793   1.081
  970SOL     OW 2908   4.979   0.881   2.371
  970SOL    HW1 2909   4.930   0.819   2.317
  970SOL    HW2 2910   4.934   0.965   2.358
  971SOL     OW 2911   0.921   1.874   4.581
  971SOL    HW1 2912   0.991   1.870   4.515
  971SOL    HW2 2913   0.934   1.958   4.625
  972SOL     OW 2914   4.660   2.760   2.734
  972SOL    HW1 2915   4.647   2.821   2.807
  972SOL    HW2 2916   4.581   2.771   2.680
  973SOL     OW 2917   0.643   3.368   0.841
  973SOL    HW1 2918   0.561   3.360   0.891
  973SOL    HW2 2919   0.708   3.397   0.905
  974SOL     OW 2920   2.375   3.609   1.864
  974SOL    HW1 2921   2.314   3.658   1.918
  974SOL    HW2 2922   2.388   3.664   1.787
  975SOL     OW 2923   1.274   4.103   3.467
  975SOL    HW1 2924   1.335   4.032   3.485
  975SOL    HW2 2925   1.230   4.118   3.551
  976SOL     OW 2926   2.555   4.393   1.446
  976SOL    HW1 2927   2.522   4.375   1.357
  976SOL    HW2 2928   2.644   4.359   1.446
  977SOL     OW 2929   4.866   5.018   3.646
  977SOL    HW1 2930   4.801   4.949   3.658
  977SOL    HW2 2931   4.819   5.088   3.599
  978SOL     OW 2932   1.622   0.223   0.349
  978SOL    HW1 2933   1.587   0.307   0.378
  978SOL    HW2 2934   1.561   0.195   0.280
  979SOL     OW 2935   0.446   1.034  -0.005
  979SOL    HW1 2936   0.449   1.110   0.053
  979SOL    HW2 2937   0.439   0.959   0.053
  980SOL     OW 2938   2.449   1.915   0.278
  980SOL    HW1 2939   2.537   1.905   0.314
  980SOL    HW2 2940   2.423   2.004   0.301
  981SOL     OW 2941   1.423   5.081   1.034
  981SOL    HW1 2942   1.499   5.064   0.978
  981SOL    HW2 2943   1.358   5.118   0.975
  982SOL     OW 2944   1.397   0.566   4.022
  982SOL    HW1 2945   1.434   0.501   3.962
  982SOL    HW2 2946   1.322   0.521   4.062
  983SOL     OW 2947   0.512   2.627   2.344
  983SOL    HW1 2948   0.583   2.630   2.408
  983SOL    HW2 2949   0.514   2.538   2.311
  984SOL     OW 2950   1.085   1.601   3.063
  984SOL    HW1 2951   0.994   1.622   3.042
  984SOL    HW2 2952   1.137   1.656   3.004
  985SOL     OW 2953   5.051   4.516   2.824
  985SOL    HW1 2954   5.006   4.550   2.902
  985SOL    HW2 2955   5.039   4.584   2.758
  986SOL     OW 2956   1.753   5.079   1.320
  986SOL    HW1 2957   1.827   5.116   1.271
  986SOL    HW2 2958   1.792   5.008   1.372
  987SOL     OW 2959   3.517   4.109   3.974
  987SOL    HW1 2960   3.592   4.164   3.956
  987SOL    HW2 2961   3.462   4.116   3.896
  988SOL     OW 2962   2.165   4.478   4.072
  988SOL    HW1 2963   2.235   4.537   4.046
  988SOL    HW2 2964   2.207   4.413   4.128
  989SOL     OW 2965   3.832   3.895   3.602
  989SOL    HW1 2966   3.743   3.932   3.601
  989SOL    HW2 2967   3.820   3.804   3.575
  990SOL     OW 2968   0.684   2.905   2.646
  990SOL    HW1 2969   0.734   2.889   2.566
  990SOL    HW2 2970   0.593   2.890   2.622
  991SOL     OW 2971   2.947   3.147   3.739
  991SOL    HW1 2972   2.929   3.114   3.651
  991SOL    HW2 2973   2.907   3.083   3.798
  992SOL     OW 2974   1.321   2.010   3.776
  992SOL    HW1 2975   1.243   2.056   3.745
  992SOL    HW2 2976   1.297   1.977   3.862
  993SOL     OW 2977   4.213   0.505   3.949
  993SOL    HW1 2978   4.141   0.443   3.944
  993SOL    HW2 2979   4.289   0.457   3.915
  994SOL     OW 2980   0.188   4.831   4.044
  994SOL    HW1 2981   0.134   4.884   4.102
  994SOL    HW2 2982   0.265   4.885   4.027
  995SOL     OW 2983   0.609   3.482   4.961
  995SOL    HW1 2984   0.679   3.418   4.947
  995SOL    HW2 2985   0.555   3.444   5.030
  996SOL     OW 2986   1.069   0.747   5.140
  996SOL    HW1 2987   1.102   0.837   5.137
  996SOL    HW2 2988   1.147   0.692   5.136
  997SOL     OW 2989   2.788   2.171   3.408
  997SOL    HW1 2990   2.815   2.081   3.423
  997SOL    HW2 2991   2.746   2.170   3.322
  998SOL     OW 2992   0.508   0.016   2.639
  998SOL    HW1 2993   0.523   0.108   2.616
  998SOL    HW2 2994   0.582  -0.006   2.697
  999SOL     OW 2995   3.752   3.417   0.253
  999SOL    HW1 2996   3.705   3.477   0.310
  999SOL    HW2 2997   3.786   3.472   0.183
 1000SOL     OW 2998   3.675   2.663   4.453
 1000SOL    HW1 2999   3.647   2.732   4.393
 1000SOL    HW2 3000   3.677   2.706   4.539
 1001SOL     OW 3001   3.174   1.202   3.720
 1001SOL    HW1 3002   3.178   1.270   3.788
 1001SOL    HW2 3003   3.266   1.185   3.699
 1002SOL     OW 3004   1.055   1.862   4.330
 1002SOL    HW1 3005   1.034   1.806   4.254
 1002SOL    HW2 3006   1.148   1.847   4.346
 1003SOL     OW 3007   2.501   1.528   3.077
 1003SOL    HW1 3008   2.420   1.499   3.120
 1003SOL    HW2 3009   2.482   1.618   3.051
 1004SOL     OW 3010   1.048   4.982   2.048
 1004SOL    HW1 3011   1.079   5.065   2.084
 1004SOL    HW2 3012   1.067   4.918   2.117
 1005SOL     OW 3013   5.001   3.464   0.895
 1005SOL    HW1 3014   4.906   3.476   0.898
 1005SOL    HW2 3015   5.035   3.525   0.960
 1006SOL     OW 3016   1.355   3.198   0.661
 1006SOL    HW1 3017   1.391   3.147   0.734
 1006SOL    HW2 3018   1.263   3.208   0.682
 1007SOL     OW 3019   3.634   2.469   4.260
 1007SOL    HW1 3020   3.540   2.454   4.248
 1007SOL    HW2 3021   3.641   2.501   4.350
 1008SOL     OW 3022   5.019   0.344   4.418
 1008SOL    HW1 3023   5.050   0.274   4.360
 1008SOL    HW2 3024   5.097   0.369   4.468
 1009SOL     OW 3025   2.689   0.296   2.705
 1009SOL    HW1 3026   2.701   0.369   2.766
 1009SOL    HW2 3027   2.596   0.299   2.683
 1010SOL     OW 3028   0.193   4.193   5.060
 1010SOL    HW1 3029   0.118   4.242   5.028
 1010SOL    HW2 3030   0.166   4.101   5.053
 1011SOL     OW 3031   2.843   3.790   4.113
 1011SOL    HW1 3032   2.881   3.771   4.027
 1011SOL    HW2 3033   2.800   3.709   4.138
 1012SOL     OW 3034   5.091   4.167   5.172
 1012SOL    HW1 3035   5.100   4.224   5.095
 1012SOL    HW2 3036   5.120   4.081   5.142
 1013SOL     OW 3037   3.027   3.127   2.142
 1013SOL    HW1 3038   2.981   3.051   2.105
 1013SOL    HW2 3039   3.050   3.101   2.231
 1014SOL     OW 3040   2.737   1.802   4.232
 1014SOL    HW1 3041   2.728   1.875   4.294
 1014SOL    HW2 3042   2.666   1.814   4.170
 1015SOL     OW 3043   4.772   3.678   3.421
 1015SOL    HW1 3044   4.762   3.641   3.509
 1015SOL    HW2 3045   4.709   3.750   3.418
 1016SOL     OW 3046   3.097   2.584   0.561
 1016SOL    HW1 3047   3.093   2.586   0.657
 1016SOL    HW2 3048   3.154   2.657   0.538
 1017SOL     OW 3049   3.097   2.907   1.826
 1017SOL    HW1 3050   3.041   2.841   1.867
 1017SOL    HW2 3051   3.133   2.958   1.899
 1018SOL     OW 3052   5.161   0.992   4.953
 1018SOL    HW1 3053   5.128   0.912   4.994
 1018SOL    HW2 3054   5.254   0.994   4.976
 1019SOL     OW 3055   5.022   3.547   3.429
 1019SOL    HW1 3056   4.943   3.590   3.397
 1019SOL    HW2 3057   5.032   3.579   3.519
 1020SOL     OW 3058   3.682   0.395   4.977
 1020SOL    HW1 3059   3.629   0.396   5.056
 1020SOL    HW2 3060   3.635   0.451   4.915
 1021SOL     OW 3061   0.695   4.720   3.330
 1021SOL    HW1 3062   0.747   4.686   3.257
 1021SOL    HW2 3063   0.661   4.803   3.298
 1022SOL     OW 3064   5.111   4.919   4.671
 1022SOL    HW1 3065   5.028   4.870   4.666
 1022SOL    HW2 3066   5.089   4.997   4.721
 1023SOL     OW 3067   0.151   2.444   3.087
 1023SOL    HW1 3068   0.174   2.488   3.169
 1023SOL    HW2 3069   0.225   2.462   3.029
 1024SOL     OW 3070   1.803   3.367   0.667
 1024SOL    HW1 3071   1.727   3.397   0.618
 1024SOL    HW2 3072   1.767   3.306   0.732
 1025SOL     OW 3073   0.678   3.624   3.952
 1025SOL    HW1 3074   0.726   3.654   4.030
 1025SOL    HW2 3075   0.717   3.540   3.931
 1026SOL     OW 3076   4.640   1.921   2.576
 1026SOL    HW1 3077   4.548   1.927   2.550
 1026SOL    HW2 3078   4.638   1.891   2.667
 1027SOL     OW 3079   0.578   3.084   1.079
 1027SOL    HW1 3080   0.593   3.089   0.985
 1027SOL    HW2 3081   0.612   3.167   1.113
 1028SOL     OW 3082   4.409   3.268   0.424
 1028SOL    HW1 3083   4.333   3.210   0.426
 1028SOL    HW2 3084   4.374   3.352   0.395
 1029SOL     OW 3085   1.867   3.548   3.014
 1029SOL    HW1 3086   1.907   3.629   2.981
 1029SOL    HW2 3087   1.846   3.498   2.936
 1030SOL     OW 3088   0.060   0.594   0.456
 1030SOL    HW1 3089   0.119   0.617   0.528
 1030SOL    HW2 3090   0.111   0.611   0.377
 1031SOL     OW 3091   4.644   3.906   1.999
 1031SOL    HW1 3092   4.594   3.927   1.920
 1031SOL    HW2 3093   4.722   3.960   1.993
 1032SOL     OW 3094   4.700   1.008   3.561
 1032SOL    HW1 3095   4.632   0.949   3.594
 1032SOL    HW2 3096   4.653   1.087   3.533
 1033SOL     OW 3097   3.289   3.268   1.152
 1033SOL    HW1 3098   3.288   3.355   1.112
 1033SOL    HW2 3099   3.227   3.274   1.224
 1034SOL     OW 3100   0.565   5.175   3.976
 1034SOL    HW1 3101   0.593   5.104   4.035
 1034SOL    HW2 3102   0.617   5.250   4.003
 1035SOL     OW 3103   0.876   1.263   3.319
 1035SOL    HW1 3104   0.970   1.278   3.320
 1035SOL    HW2 3105   0.861   1.192   3.382
 1036SOL     OW 3106   2.647   2.814   1.908
 1036SOL    HW1 3107   2.656   2.726   1.871
 1036SOL    HW2 3108   2.562   2.845   1.876
 1037SOL     OW 3109   2.944  -0.002   0.977
 1037SOL    HW1 3110   2.965   0.062   0.909
 1037SOL    HW2 3111   2.864  -0.044   0.945
 1038SOL     OW 3112   1.750   3.743   2.577
 1038SOL    HW1 3113   1.702   3.702   2.505
 1038SOL    HW2 3114   1.840   3.713   2.566
 1039SOL     OW 3115   1.600   3.321   1.306
 1039SOL    HW1 3116   1.679   3.292   1.351
 1039SOL    HW2 3117   1.619   3.412   1.282
 1040SOL     OW 3118   2.121   0.118   3.913
 1040SOL    HW1 3119   2.070   0.142   3.835
 1040SOL    HW2 3120   2.132   0.201   3.960
 1041SOL     OW 3121   4.248   0.258   4.270
 1041SOL    HW1 3122   4.311   0.329   4.271
 1041SOL    HW2 3123   4.276   0.203   4.196
 1042SOL     OW 3124   4.561   5.087   2.321
 1042SOL    HW1 3125   4.652   5.113   2.336
 1042SOL    HW2 3126   4.564   4.991   2.321
 1043SOL     OW 3127   1.022   3.328   1.447
 1043SOL    HW1 3128   0.929   3.310   1.432
 1043SOL    HW2 3129   1.057   3.245   1.479
 1044SOL     OW 3130   0.238   0.762   4.640
 1044SOL    HW1 3131   0.196   0.690   4.688
 1044SOL    HW2 3132   0.330   0.757   4.668
 1045SOL     OW 3133   2.709   4.726   4.861
 1045SOL    HW1 3134   2.767   4.653   4.839
 1045SOL    HW2 3135   2.644   4.688   4.920
 1046SOL     OW 3136   1.465   4.392   0.153
 1046SOL    HW1 3137   1.459   4.484   0.178
 1046SOL    HW2 3138   1.521   4.353   0.221
 1047SOL     OW 3139   0.356   4.311   3.506
 1047SOL    HW1 3140   0.335   4.281   3.417
 1047SOL    HW2 3141   0.275   4.352   3.537
 1048SOL     OW 3142   0.622   3.638   1.832
 1048SOL    HW1 3143   0.690   3.649   1.898
 1048SOL    HW2 3144   0.590   3.548   1.845
 1049SOL     OW 3145   3.642   2.894   3.600
 1049SOL    HW1 3146   3.681   2.959   3.543
 1049SOL    HW2 3147   3.601   2.831   3.541
 1050SOL     OW 3148   2.501   3.812   2.603
 1050SOL    HW1 3149   2.524   3.747   2.669
 1050SOL    HW2 3150   2.577   3.817   2.546
 1051SOL     OW 3151   0.499   2.416   0.992
 1051SOL    HW1 3152   0.466   2.366   1.066
 1051SOL    HW2 3153   0.424   2.467   0.963
 1052SOL     OW 3154   0.599   5.138   0.476
 1052SOL    HW1 3155   0.567   5.127   0.566
 1052SOL    HW2 3156   0.529   5.103   0.421
 1053SOL     OW 3157   4.578   4.444   0.524
 1053SOL    HW1 3158   4.662   4.403   0.543
 1053SOL    HW2 3159   4.537   4.457   0.609
 1054SOL     OW 3160   2.908   3.888   4.994
 1054SOL    HW1 3161   2.942   3.908   5.081
 1054SOL    HW2 3162   2.880   3.972   4.959
 1055SOL     OW 3163   3.705   4.447   5.164
 1055SOL    HW1 3164   3.762   4.371   5.166
 1055SOL    HW2 3165   3.703   4.473   5.072
 1056SOL     OW 3166   3.603   3.989   1.676
 1056SOL    HW1 3167   3.576   4.057   1.614
 1056SOL    HW2 3168   3.564   3.909   1.642
 1057SOL     OW 3169   0.206   4.953   4.364
 1057SOL    HW1 3170   0.152   4.894   4.311
 1057SOL    HW2 3171   0.173   5.040   4.344
 1058SOL     OW 3172   0.288   4.363   0.076
 1058SOL    HW1 3173   0.219   4.368   0.142
 1058SOL    HW2 3174   0.249   4.313   0.004
 1059SOL     OW 3175   3.244   4.333   3.578
 1059SOL    HW1 3176   3.258   4.346   3.484
 1059SOL    HW2 3177   3.168   4.275   3.584
 1060SOL     OW 3178   5.130   4.785   4.425
 1060SOL    HW1 3179   5.055   4.774   4.367
 1060SOL    HW2 3180   5.100   4.849   4.491
 1061SOL     OW 3181   0.673   3.529   4.273
 1061SOL    HW1 3182   0.699   3.459   4.215
 1061SOL    HW2 3183   0.736   3.599   4.257
 1062SOL     OW 3184   0.089   3.024   5.002
 1062SOL    HW1 3185   0.042   3.009   4.920
 1062SOL    HW2 3186   0.148   3.097   4.983
 1063SOL     OW 3187   4.806   0.449   3.041
 1063SOL    HW1 3188   4.896   0.477   3.057
 1063SOL    HW2 3189   4.788   0.476   2.951
 1064SOL     OW 3190   4.475   4.681   0.450
 1064SOL    HW1 3191   4.475   4.595   0.492
 1064SOL    HW2 3192   4.535   4.671   0.376
 1065SOL     OW 3193   1.418   5.055   3.869
 1065SOL    HW1 3194   1.380   5.092   3.949
 1065SOL    HW2 3195   1.443   4.965   3.893
 1066SOL     OW 3196   4.977   0.150   3.163
 1066SOL    HW1 3197   4.893   0.185   3.133
 1066SOL    HW2 3198   5.014   0.221   3.216
 1067SOL     OW 3199   2.227   0.894   3.612
 1067SOL    HW1 3200   2.291   0.962   3.635
 1067SOL    HW2 3201   2.193   0.921   3.527
 1068SOL     OW 3202   1.768   1.385   4.562
 1068SOL    HW1 3203   1.853   1.368   4.603
 1068SOL    HW2 3204   1.760   1.481   4.562
 1069SOL     OW 3205   1.738   4.156   1.619
 1069SOL    HW1 3206   1.736   4.209   1.698
 1069SOL    HW2 3207   1.646   4.141   1.597
 1070SOL     OW 3208   5.133   4.811   2.129
 1070SOL    HW1 3209   5.151   4.839   2.218
 1070SOL    HW2 3210   5.188   4.733   2.116
 1071SOL     OW 3211   3.798   1.845   5.133
 1071SOL    HW1 3212   3.707   1.815   5.132
 1071SOL    HW2 3213   3.849   1.766   5.113
 1072SOL     OW 3214   3.123   0.733   1.660
 1072SOL    HW1 3215   3.206   0.767   1.695
 1072SOL    HW2 3216   3.101   0.793   1.589
 1073SOL     OW 3217   5.098   1.713   4.387
 1073SOL    HW1 3218   5.142   1.666   4.316
 1073SOL    HW2 3219   5.008   1.681   4.385
 1074SOL     OW 3220   2.138   4.922   0.431
 1074SOL    HW1 3221   2.152   5.012   0.460
 1074SOL    HW2 3222   2.053   4.897   0.469
 1075SOL     OW 3223   1.540   3.852   0.013
 1075SOL    HW1 3224   1.452   3.876  -0.018
 1075SOL    HW2 3225   1.587   3.935   0.018
 1076SOL     OW 3226   2.249   4.994   4.787
 1076SOL    HW1 3227   2.278   4.952   4.706
 1076SOL    HW2 3228   2.310   5.067   4.800
 1077SOL     OW 3229   2.193   4.745   1.764
 1077SOL    HW1 3230   2.243   4.665   1.780
 1077SOL    HW2 3231   2.121   4.717   1.707
 1078SOL     OW 3232   2.195   1.563   3.777
 1078SOL    HW1 3233   2.130   1.499   3.747
 1078SOL    HW2 3234   2.148   1.619   3.838
 1079SOL     OW 3235   4.789   2.036   4.076
 1079SOL    HW1 3236   4.732   2.069   4.006
 1079SOL    HW2 3237   4.787   1.941   4.065
 1080SOL     OW 3238   1.656   2.924   1.486
 1080SOL    HW1 3239   1.587   2.925   1.420
 1080SOL    HW2 3240   1.717   2.857   1.455
 1081SOL     OW 3241   1.282   1.105   4.677
 1081SOL    HW1 3242   1.280   1.072   4.767
 1081SOL    HW2 3243   1.231   1.040   4.627
 1082SOL     OW 3244   0.700   2.539   4.584
 1082SOL    HW1 3245   0.717   2.450   4.554
 1082SOL    HW2 3246   0.619   2.564   4.539
 1083SOL     OW 3247   4.614   3.690   0.094
 1083SOL    HW1 3248   4.637   3.742   0.017
 1083SOL    HW2 3249   4.665   3.728   0.165
 1084SOL     OW 3250   0.321   2.082   1.237
 1084SOL    HW1 3251   0.326   1.986   1.236
 1084SOL    HW2 3252   0.227   2.101   1.238
 1085SOL     OW 3253   2.970   1.352   1.814
 1085SOL    HW1 3254   2.935   1.282   1.760
 1085SOL    HW2 3255   3.063   1.356   1.792
 1086SOL     OW 3256   0.181   0.234   2.555
 1086SOL    HW1 3257   0.194   0.262   2.465
 1086SOL    HW2 3258   0.247   0.282   2.605
 1087SOL     OW 3259   2.931   5.155   2.180
 1087SOL    HW1 3260   2.872   5.223   2.211
 1087SOL    HW2 3261   2.874   5.091   2.138
 1088SOL     OW 3262   4.963   3.256   4.870
 1088SOL    HW1 3263   4.977   3.280   4.778
 1088SOL    HW2 3264   4.972   3.339   4.918
 1089SOL     OW 3265   3.935   1.513   0.984
 1089SOL    HW1 3266   3.995   1.579   0.947
 1089SOL    HW2 3267   3.977   1.486   1.065
 1090SOL     OW 3268   4.006   4.354   4.939
 1090SOL    HW1 3269   4.039   4.313   4.859
 1090SOL    HW2 3270   4.034   4.445   4.932
 1091SOL     OW 3271   1.657   4.713   4.857
 1091SOL    HW1 3272   1.746   4.722   4.824
 1091SOL    HW2 3273   1.660   4.748   4.946
 1092SOL     OW 3274   0.507   2.385   2.209
 1092SOL    HW1 3275   0.413   2.369   2.205
 1092SOL    HW2 3276   0.533   2.400   2.119
 1093SOL     OW 3277   2.991   2.990   4.147
 1093SOL    HW1 3278   2.955   2.999   4.059
 1093SOL    HW2 3279   3.085   2.975   4.133
 1094SOL     OW 3280   1.007   1.675   4.776
 1094SOL    HW1 3281   0.989   1.699   4.867
 1094SOL    HW2 3282   0.972   1.748   4.725
 1095SOL     OW 3283   3.033   3.852   2.873
 1095SOL    HW1 3284   3.066   3.879   2.788
 1095SOL    HW2 3285   3.022   3.757   2.865
 1096SOL     OW 3286   1.911   4.552   3.892
 1096SOL    HW1 3287   1.936   4.582   3.804
 1096SOL    HW2 3288   1.992   4.516   3.928
 1097SOL     OW 3289   0.233   0.205   4.126
 1097SOL    HW1 3290   0.306   0.245   4.078
 1097SOL    HW2 3291   0.157   0.259   4.105
 1098SOL     OW 3292   0.786   3.711   2.066
 1098SOL    HW1 3293   0.812   3.685   2.155
 1098SOL    HW2 3294   0.868   3.727   2.020
 1099SOL     OW 3295   3.016   3.403   2.150
 1099SOL    HW1 3296   2.925   3.424   2.125
 1099SOL    HW2 3297   3.030   3.316   2.113
 1100SOL     OW 3298   3.434   1.968   0.369
 1100SOL    HW1 3299   3.495   1.895   0.383
 1100SOL    HW2 3300   3.488   2.035   0.327
 1101SOL     OW 3301   3.482   2.881   3.053
 1101SOL    HW1 3302   3.569   2.845   3.038
 1101SOL    HW2 3303   3.443   2.822   3.118
 1102SOL     OW 3304   2.819   3.425   0.433
 1102SOL    HW1 3305   2.814   3.340   0.388
 1102SOL    HW2 3306   2.804   3.489   0.364
 1103SOL     OW 3307   2.049   3.530   0.110
 1103SOL    HW1 3308   2.075   3.467   0.178
 1103SOL    HW2 3309   1.984   3.586   0.152
 1104SOL     OW 3310   2.215   3.366   4.285
 1104SOL    HW1 3311   2.155   3.377   4.212
 1104SOL    HW2 3312   2.272   3.443   4.281
 1105SOL     OW 3313   1.505   4.808   4.533
 1105SOL    HW1 3314   1.435   4.821   4.469
 1105SOL    HW2 3315   1.469   4.742   4.594
 1106SOL     OW 3316   4.352   5.182   2.174
 1106SOL    HW1 3317   4.425   5.154   2.229
 1106SOL    HW2 3318   4.281   5.123   2.197
 1107SOL     OW 3319   3.746   2.442   0.914
 1107SOL    HW1 3320   3.786   2.447   0.827
 1107SOL    HW2 3321   3.813   2.475   0.974
 1108SOL     OW 3322   1.101   2.988   0.081
 1108SOL    HW1 3323   1.125   3.002   0.172
 1108SOL    HW2 3324   1.005   2.994   0.080
 1109SOL     OW 3325   0.089   2.966   2.753
 1109SOL    HW1 3326   0.169   3.012   2.728
 1109SOL    HW2 3327   0.019   3.029   2.738
 1110SOL     OW 3328   2.434   3.056   4.089
 1110SOL    HW1 3329   2.376   3.025   4.158
 1110SOL    HW2 3330   2.499   2.986   4.079
 1111SOL     OW 3331   3.788   1.652   0.277
 1111SOL    HW1 3332   3.706   1.604   0.262
 1111SOL    HW2 3333   3.824   1.614   0.357
 1112SOL     OW 3334   2.647   3.142   5.160
 1112SOL    HW1 3335   2.568   3.155   5.108
 1112SOL    HW2 3336   2.644   3.050   5.186
 1113SOL     OW 3337   5.152   4.823   3.033
 1113SOL    HW1 3338   5.218   4.866   3.087
 1113SOL    HW2 3339   5.186   4.735   3.018
 1114SOL     OW 3340   3.753   1.843   0.721
 1114SOL    HW1 3341   3.754   1.848   0.817
 1114SOL    HW2 3342   3.764   1.934   0.693
 1115SOL     OW 3343   1.474   4.469   2.683
 1115SOL    HW1 3344   1.563   4.487   2.713
 1115SOL    HW2 3345   1.478   4.380   2.648
 1116SOL     OW 3346   2.049   3.425   2.057
 1116SOL    HW1 3347   2.036   3.519   2.048
 1116SOL    HW2 3348   2.140   3.410   2.030
 1117SOL     OW 3349   4.200   4.197   3.704
 1117SOL    HW1 3350   4.237   4.125   3.652
 1117SOL    HW2 3351   4.129   4.231   3.650
 1118SOL     OW 3352   3.128   3.989   1.590
 1118SOL    HW1 3353   3.084   4.004   1.506
 1118SOL    HW2 3354   3.191   3.919   1.572
 1119SOL     OW 3355   2.113   0.536   1.764
 1119SOL    HW1 3356   2.151   0.503   1.683
 1119SOL    HW2 3357   2.171   0.503   1.833
 1120SOL     OW 3358   4.692   0.361   2.110
 1120SOL    HW1 3359   4.737   0.301   2.170
 1120SOL    HW2 3360   4.601   0.331   2.110
 1121SOL     OW 3361   2.421   5.125   3.745
 1121SOL    HW1 3362   2.456   5.055   3.799
 1121SOL    HW2 3363   2.429   5.204   3.799
 1122SOL     OW 3364   1.745   0.970   0.692
 1122SOL    HW1 3365   1.802   1.038   0.728
 1122SOL    HW2 3366   1.803   0.915   0.640
 1123SOL     OW 3367   4.747   4.360   0.258
 1123SOL    HW1 3368   4.778   4.327   0.174
 1123SOL    HW2 3369   4.673   4.417   0.236
 1124SOL     OW 3370   3.303   0.541   1.414
 1124SOL    HW1 3371   3.212   0.566   1.399
 1124SOL    HW2 3372   3.327   0.584   1.496
 1125SOL     OW 3373   0.994   4.800   4.599
 1125SOL    HW1 3374   0.921   4.813   4.538
 1125SOL    HW2 3375   1.008   4.886   4.638
 1126SOL     OW 3376   0.992   0.123   1.396
 1126SOL    HW1 3377   1.067   0.115   1.455
 1126SOL    HW2 3378   0.932   0.053   1.424
 1127SOL     OW 3379   4.998   3.421   0.339
 1127SOL    HW1 3380   4.919   3.471   0.321
 1127SOL    HW2 3381   5.023   3.446   0.428
 1128SOL     OW 3382   4.573   0.645   3.030
 1128SOL    HW1 3383   4.576   0.678   2.940
 1128SOL    HW2 3384   4.622   0.563   3.027
 1129SOL     OW 3385   2.015   3.166   0.188
 1129SOL    HW1 3386   2.106   3.142   0.173
 1129SOL    HW2 3387   2.019   3.256   0.222
 1130SOL     OW 3388   1.386   3.289   3.999
 1130SOL    HW1 3389   1.334   3.307   4.077
 1130SOL    HW2 3390   1.383   3.371   3.949
 1131SOL     OW 3391   1.551   2.131   3.811
 1131SOL    HW1 3392   1.475   2.073   3.803
 1131SOL    HW2 3393   1.514   2.217   3.830
 1132SOL     OW 3394   4.769   2.255   3.207
 1132SOL    HW1 3395   4.758   2.290   3.119
 1132SOL    HW2 3396   4.800   2.328   3.259
 1133SOL     OW 3397   0.706   0.263   3.721
 1133SOL    HW1 3398   0.740   0.351   3.733
 1133SOL    HW2 3399   0.613   0.276   3.700
 1134SOL     OW 3400   3.799   3.847   4.952
 1134SOL    HW1 3401   3.764   3.881   5.034
 1134SOL    HW2 3402   3.887   3.884   4.946
 1135SOL     OW 3403   2.119   1.646   3.426
 1135SOL    HW1 3404   2.093   1.663   3.516
 1135SOL    HW2 3405   2.127   1.733   3.387
 1136SOL     OW 3406   3.377   4.754   2.648
 1136SOL    HW1 3407   3.383   4.829   2.707
 1136SOL    HW2 3408   3.329   4.787   2.572
 1137SOL     OW 3409   1.810   2.079   3.042
 1137SOL    HW1 3410   1.786   2.012   3.106
 1137SOL    HW2 3411   1.776   2.160   3.079
 1138SOL     OW 3412   0.447   1.407   1.378
 1138SOL    HW1 3413   0.363   1.449   1.400
 1138SOL    HW2 3414   0.470   1.356   1.455
 1139SOL     OW 3415   3.834   3.517   4.192
 1139SOL    HW1 3416   3.925   3.535   4.216
 1139SOL    HW2 3417   3.835   3.425   4.166
 1140SOL     OW 3418   0.938   2.330   4.942
 1140SOL    HW1 3419   0.973   2.277   4.871
 1140SOL    HW2 3420   1.015   2.365   4.987
 1141SOL     OW 3421   2.015   1.413   4.648
 1141SOL    HW1 3422   2.028   1.465   4.728
 1141SOL    HW2 3423   2.080   1.448   4.587
 1142SOL     OW 3424   1.246   4.425   2.336
 1142SOL    HW1 3425   1.277   4.336   2.353
 1142SOL    HW2 3426   1.196   4.448   2.415
 1143SOL     OW 3427   4.438   3.907   0.579
 1143SOL    HW1 3428   4.450   4.002   0.571
 1143SOL    HW2 3429   4.508   3.870   0.525
 1144SOL     OW 3430   2.449   1.581   4.082
 1144SOL    HW1 3431   2.381   1.648   4.088
 1144SOL    HW2 3432   2.424   1.516   4.149
 1145SOL     OW 3433   2.451   3.431   1.519
 1145SOL    HW1 3434   2.471   3.517   1.556
 1145SOL    HW2 3435   2.426   3.378   1.595
 1146SOL     OW 3436   2.106   1.732   1.243
 1146SOL    HW1 3437   2.036   1.738   1.308
 1146SOL    HW2 3438   2.075   1.668   1.179
 1147SOL     OW 3439   0.948   3.963   4.283
 1147SOL    HW1 3440   0.998   3.987   4.361
 1147SOL    HW2 3441   0.862   4.001   4.297
 1148SOL     OW 3442   0.711   3.574   1.335
 1148SOL    HW1 3443   0.668   3.628   1.401
 1148SOL    HW2 3444   0.659   3.588   1.256
 1149SOL     OW 3445   3.238   3.496   4.474
 1149SOL    HW1 3446   3.261   3.528   4.562
 1149SOL    HW2 3447   3.297   3.543   4.416
 1150SOL     OW 3448   1.268   3.557   0.558
 1150SOL    HW1 3449   1.207   3.571   0.486
 1150SOL    HW2 3450   1.252   3.631   0.618
 1151SOL     OW 3451   0.089   2.683   0.633
 1151SOL    HW1 3452   0.042   2.697   0.551
 1151SOL    HW2 3453   0.165   2.740   0.627
 1152SOL     OW 3454   2.475   3.014   0.731
 1152SOL    HW1 3455   2.524   3.076   0.678
 1152SOL    HW2 3456   2.448   2.946   0.669
 1153SOL     OW 3457   3.570   4.304   4.250
 1153SOL    HW1 3458   3.654   4.328   4.211
 1153SOL    HW2 3459   3.568   4.351   4.333
 1154SOL     OW 3460   2.201   3.140   3.471
 1154SOL    HW1 3461   2.249   3.100   3.399
 1154SOL    HW2 3462   2.144   3.205   3.429
 1155SOL     OW 3463   3.267   3.552   2.021
 1155SOL    HW1 3464   3.178   3.517   2.028
 1155SOL    HW2 3465   3.258   3.628   1.963
 1156SOL     OW 3466   0.314   0.154   3.512
 1156SOL    HW1 3467   0.354   0.217   3.573
 1156SOL    HW2 3468   0.225   0.187   3.499
 1157SOL     OW 3469   4.048   1.350   2.259
 1157SOL    HW1 3470   3.954   1.363   2.253
 1157SOL    HW2 3471   4.081   1.369   2.171
 1158SOL     OW 3472   4.897   4.677   3.139
 1158SOL    HW1 3473   4.963   4.738   3.106
 1158SOL    HW2 3474   4.938   4.637   3.216
 1159SOL     OW 3475   2.346   4.814   1.177
 1159SOL    HW1 3476   2.407   4.790   1.247
 1159SOL    HW2 3477   2.261   4.823   1.221
 1160SOL     OW 3478   2.638   0.599   4.713
 1160SOL    HW1 3479   2.579   0.669   4.686
 1160SOL    HW2 3480   2.715   0.610   4.658
 1161SOL     OW 3481   2.638   1.104   2.842
 1161SOL    HW1 3482   2.685   1.131   2.921
 1161SOL    HW2 3483   2.664   1.013   2.828
 1162SOL     OW 3484   1.856   0.046   2.730
 1162SOL    HW1 3485   1.890  -0.012   2.798
 1162SOL    HW2 3486   1.883   0.004   2.648
 1163SOL     OW 3487   4.871   2.004   2.425
 1163SOL    HW1 3488   4.829   1.984   2.341
 1163SOL    HW2 3489   4.809   1.973   2.491
 1164SOL     OW 3490   0.575   1.259   0.860
 1164SOL    HW1 3491   0.518   1.204   0.913
 1164SOL    HW2 3492   0.521   1.285   0.785
 1165SOL     OW 3493   1.909   4.665   3.202
 1165SOL    HW1 3494   1.859   4.583   3.196
 1165SOL    HW2 3495   1.843   4.731   3.226
 1166SOL     OW 3496   1.044   4.664   2.234
 1166SOL    HW1 3497   1.138   4.667   2.252
 1166SOL    HW2 3498   1.033   4.722   2.158
 1167SOL     OW 3499   4.024   0.978   0.684
 1167SOL    HW1 3500   4.092   0.953   0.622
 1167SOL    HW2 3501   4.062   1.050   0.734
 1168SOL     OW 3502   3.979   4.971   0.201
 1168SOL    HW1 3503   4.045   4.928   0.257
 1168SOL    HW2 3504   3.950   5.046   0.252
 1169SOL     OW 3505   3.850   4.078   3.872
 1169SOL    HW1 3506   3.866   4.050   3.963
 1169SOL    HW2 3507   3.892   4.011   3.819
 1170SOL     OW 3508   2.938   4.091   0.945
 1170SOL    HW1 3509   3.005   4.155   0.970
 1170SOL    HW2 3510   2.937   4.093   0.849
 1171SOL     OW 3511   4.612   0.802   0.354
 1171SOL    HW1 3512   4.648   0.718   0.326
 1171SOL    HW2 3513   4.520   0.799   0.327
 1172SOL     OW 3514   4.764   1.582   0.327
 1172SOL    HW1 3515   4.815   1.623   0.257
 1172SOL    HW2 3516   4.822   1.583   0.402
 1173SOL     OW 3517   4.438   2.818   1.867
 1173SOL    HW1 3518   4.460   2.727   1.850
 1173SOL    HW2 3519   4.494   2.843   1.941
 1174SOL     OW 3520   2.919   2.337   4.395
 1174SOL    HW1 3521   2.841   2.314   4.447
 1174SOL    HW2 3522   2.924   2.268   4.329
 1175SOL     OW 3523   3.728   0.490   0.990
 1175SOL    HW1 3524   3.714   0.563   0.929
 1175SOL    HW2 3525   3.793   0.435   0.946
 1176SOL     OW 3526   2.875   1.082   4.994
 1176SOL    HW1 3527   2.873   1.086   4.899
 1176SOL    HW2 3528   2.936   1.011   5.014
 1177SOL     OW 3529   2.042   3.067   3.092
 1177SOL    HW1 3530   2.017   2.977   3.111
 1177SOL    HW2 3531   2.028   3.115   3.174
 1178SOL     OW 3532   4.402   1.295   2.653
 1178SOL    HW1 3533   4.429   1.286   2.562
 1178SOL    HW2 3534   4.307   1.306   2.649
 1179SOL     OW 3535   0.372   4.411   4.169
 1179SOL    HW1 3536   0.289   4.377   4.200
 1179SOL    HW2 3537   0.429   4.412   4.247
 1180SOL     OW 3538   5.183   1.376   4.542
 1180SOL    HW1 3539   5.116   1.412   4.600
 1180SOL    HW2 3540   5.137   1.309   4.491
 1181SOL     OW 3541   1.294   3.648   2.323
 1181SOL    HW1 3542   1.209   3.640   2.366
 1181SOL    HW2 3543   1.356   3.659   2.396
 1182SOL     OW 3544   5.208   4.768   3.827
 1182SOL    HW1 3545   5.153   4.693   3.803
 1182SOL    HW2 3546   5.216   4.762   3.922
 1183SOL     OW 3547   1.273   0.340   0.767
 1183SOL    HW1 3548   1.184   0.371   0.752
 1183SOL    HW2 3549   1.266   0.283   0.844
 1184SOL     OW 3550   2.575   0.102   3.426
 1184SOL    HW1 3551   2.662   0.108   3.464
 1184SOL    HW2 3552   2.548   0.011   3.443
 1185SOL     OW 3553   2.030   4.901   4.273
 1185SOL    HW1 3554   1.954   4.843   4.277
 1185SOL    HW2 3555   2.001   4.974   4.219
 1186SOL     OW 3556   3.154   2.551   0.834
 1186SOL    HW1 3557   3.220   2.493   0.871
 1186SOL    HW2 3558   3.136   2.616   0.902
 1187SOL     OW 3559   3.018   3.145   0.313
 1187SOL    HW1 3560   2.929   3.170   0.288
 1187SOL    HW2 3561   3.050   3.092   0.239
 1188SOL     OW 3562   0.427   0.205   5.026
 1188SOL    HW1 3563   0.429   0.174   5.116
 1188SOL    HW2 3564   0.517   0.193   4.994
 1189SOL     OW 3565   3.007   2.450   0.363
 1189SOL    HW1 3566   2.925   2.495   0.343
 1189SOL    HW2 3567   3.047   2.503   0.433
 1190SOL     OW 3568   4.698   0.584   1.082
 1190SOL    HW1 3569   4.604   0.602   1.078
 1190SOL    HW2 3570   4.734   0.660   1.128
 1191SOL     OW 3571   0.824   2.294   2.346
 1191SOL    HW1 3572   0.854   2.365   2.289
 1191SOL    HW2 3573   0.734   2.278   2.319
 1192SOL     OW 3574   2.019   0.180   3.149
 1192SOL    HW1 3575   1.983   0.096   3.176
 1192SOL    HW2 3576   2.108   0.181   3.185
 1193SOL     OW 3577   3.088   1.184   3.034
 1193SOL    HW1 3578   3.110   1.108   2.980
 1193SOL    HW2 3579   2.993   1.190   3.031
 1194SOL     OW 3580   2.603   1.267   2.591
 1194SOL    HW1 3581   2.667   1.333   2.617
 1194SOL    HW2 3582   2.632   1.187   2.636
 1195SOL     OW 3583   2.873   1.009   4.734
 1195SOL    HW1 3584   2.818   0.931   4.721
 1195SOL    HW2 3585   2.903   1.031   4.646
 1196SOL     OW 3586   4.441   5.148   5.093
 1196SOL    HW1 3587   4.399   5.225   5.052
 1196SOL    HW2 3588   4.371   5.083   5.097
 1197SOL     OW 3589   0.310   2.195   4.630
 1197SOL    HW1 3590   0.239   2.220   4.689
 1197SOL    HW2 3591   0.343   2.278   4.596
 1198SOL     OW 3592   3.670   0.048   4.942
 1198SOL    HW1 3593   3.699   0.073   5.030
 1198SOL    HW2 3594   3.726  -0.027   4.919
 1199SOL     OW 3595   0.475   1.859   0.512
 1199SOL    HW1 3596   0.491   1.838   0.604
 1199SOL    HW2 3597   0.540   1.925   0.490
 1200SOL     OW 3598   2.535   0.109   1.906
 1200SOL    HW1 3599   2.587   0.188   1.892
 1200SOL    HW2 3600   2.532   0.100   2.001
 1201SOL     OW 3601   3.180   0.679   2.697
 1201SOL    HW1 3602   3.253   0.640   2.745
 1201SOL    HW2 3603   3.221   0.718   2.620
 1202SOL     OW 3604   0.714   5.215   2.807
 1202SOL    HW1 3605   0.723   5.120   2.804
 1202SOL    HW2 3606   0.802   5.246   2.832
 1203SOL     OW 3607   4.939   2.437   1.110
 1203SOL    HW1 3608   4.930   2.388   1.028
 1203SOL    HW2 3609   4.869   2.503   1.107
 1204SOL     OW 3610   1.332   3.035   3.552
 1204SOL    HW1 3611   1.307   3.128   3.547
 1204SOL    HW2 3612   1.321   3.003   3.462
 1205SOL     OW 3613   0.298   1.223   4.812
 1205SOL    HW1 3614   0.264   1.228   4.722
 1205SOL    HW2 3615   0.272   1.307   4.851
 1206SOL     OW 3616   3.763   3.645   2.719
 1206SOL    HW1 3617   3.714   3.641   2.801
 1206SOL    HW2 3618   3.696   3.637   2.651
 1207SOL     OW 3619   5.008   3.511   2.638
 1207SOL    HW1 3620   4.944   3.579   2.656
 1207SOL    HW2 3621   5.029   3.474   2.724
 1208SOL     OW 3622   2.709   3.480   4.962
 1208SOL    HW1 3623   2.770   3.407   4.954
 1208SOL    HW2 3624   2.687   3.482   5.055
 1209SOL     OW 3625   0.434   3.204   2.307
 1209SOL    HW1 3626   0.463   3.115   2.288
 1209SOL    HW2 3627   0.501   3.261   2.269
 1210SOL     OW 3628   4.844   1.627   2.036
 1210SOL    HW1 3629   4.842   1.549   1.980
 1210SOL    HW2 3630   4.870   1.593   2.122
 1211SOL     OW 3631   3.305   0.253   4.910
 1211SOL    HW1 3632   3.211   0.246   4.891
 1211SOL    HW2 3633   3.332   0.335   4.869
 1212SOL     OW 3634   1.894   5.120   5.125
 1212SOL    HW1 3635   1.963   5.160   5.177
 1212SOL    HW2 3636   1.940   5.067   5.060
 1213SOL     OW 3637   1.929   2.710   0.924
 1213SOL    HW1 3638   1.913   2.621   0.957
 1213SOL    HW2 3639   1.979   2.753   0.994
 1214SOL     OW 3640   1.649   3.659   0.739
 1214SOL    HW1 3641   1.587   3.592   0.768
 1214SOL    HW2 3642   1.649   3.652   0.644
 1215SOL     OW 3643   2.113   1.265   2.770
 1215SOL    HW1 3644   2.136   1.195   2.831
 1215SOL    HW2 3645   2.169   1.250   2.694
 1216SOL     OW 3646   5.012   0.371   3.325
 1216SOL    HW1 3647   4.919   0.387   3.340
 1216SOL    HW2 3648   5.049   0.457   3.307
 1217SOL     OW 3649   1.279   2.794   4.222
 1217SOL    HW1 3650   1.267   2.710   4.179
 1217SOL    HW2 3651   1.332   2.774   4.300
 1218SOL     OW 3652   1.843   0.600   3.728
 1218SOL    HW1 3653   1.939   0.599   3.730
 1218SOL    HW2 3654   1.820   0.692   3.734
 1219SOL     OW 3655   2.001   2.982   4.066
 1219SOL    HW1 3656   1.955   2.942   3.993
 1219SOL    HW2 3657   2.033   3.066   4.032
 1220SOL     OW 3658   0.391   0.301   0.715
 1220SOL    HW1 3659   0.485   0.282   0.714
 1220SOL    HW2 3660   0.355   0.242   0.781
 1221SOL     OW 3661   2.768   2.160   0.830
 1221SOL    HW1 3662   2.823   2.138   0.904
 1221SOL    HW2 3663   2.678   2.153   0.864
 1222SOL     OW 3664   2.895   4.178   4.958
 1222SOL    HW1 3665   2.896   4.249   4.893
 1222SOL    HW2 3666   2.983   4.178   4.995
 1223SOL     OW 3667   1.434   4.573   0.742
 1223SOL    HW1 3668   1.423   4.478   0.742
 1223SOL    HW2 3669   1.346   4.607   0.755
 1224SOL     OW 3670   1.798   3.106   3.347
 1224SOL    HW1 3671   1.793   3.047   3.423
 1224SOL    HW2 3672   1.707   3.115   3.318
 1225SOL     OW 3673   0.149   3.487   2.342
 1225SOL    HW1 3674   0.227   3.514   2.294
 1225SOL    HW2 3675   0.133   3.397   2.315
 1226SOL     OW 3676   3.970   4.620   0.095
 1226SOL    HW1 3677   4.005   4.656   0.014
 1226SOL    HW2 3678   3.880   4.653   0.099
 1227SOL     OW 3679   4.429   1.524   4.226
 1227SOL    HW1 3680   4.454   1.455   4.164
 1227SOL    HW2 3681   4.376   1.479   4.292
 1228SOL     OW 3682   0.968   1.821   3.281
 1228SOL    HW1 3683   1.015   1.745   3.245
 1228SOL    HW2 3684   0.927   1.788   3.361
 1229SOL     OW 3685   1.602   0.807   3.429
 1229SOL    HW1 3686   1.648   0.730   3.463
 1229SOL    HW2 3687   1.614   0.801   3.334
 1230SOL     OW 3688   4.076   2.587   3.757
 1230SOL    HW1 3689   4.166   2.581   3.728
 1230SOL    HW2 3690   4.048   2.495   3.767
 1231SOL     OW 3691   3.294   3.658   2.881
 1231SOL    HW1 3692   3.274   3.706   2.801
 1231SOL    HW2 3693   3.214   3.611   2.902
 1232SOL     OW 3694   3.271   1.761   2.456
 1232SOL    HW1 3695   3.351   1.707   2.453
 1232SOL    HW2 3696   3.277   1.816   2.378
 1233SOL     OW 3697   2.702   4.967   4.726
 1233SOL    HW1 3698   2.695   4.888   4.779
 1233SOL    HW2 3699   2.699   4.935   4.636
 1234SOL     OW 3700   5.083   4.655   1.237
 1234SOL    HW1 3701   5.016   4.619   1.294
 1234SOL    HW2 3702   5.078   4.603   1.157
 1235SOL     OW 3703   0.696   4.260   2.221
 1235SOL    HW1 3704   0.638   4.189   2.248
 1235SOL    HW2 3705   0.735   4.291   2.303
 1236SOL     OW 3706   2.802   4.723   2.194
 1236SOL    HW1 3707   2.895   4.701   2.206
 1236SOL    HW2 3708   2.798   4.767   2.109
 1237SOL     OW 3709   3.385   3.999   1.423
 1237SOL    HW1 3710   3.396   4.027   1.332
 1237SOL    HW2 3711   3.382   3.903   1.418
 1238SOL     OW 3712   1.010   1.241   4.039
 1238SOL    HW1 3713   1.002   1.150   4.068
 1238SOL    HW2 3714   1.030   1.234   3.945
 1239SOL     OW 3715   3.617   2.473   0.500
 1239SOL    HW1 3716   3.707   2.477   0.534
 1239SOL    HW2 3717   3.563   2.498   0.575
 1240SOL     OW 3718   3.484   0.601   3.683
 1240SOL    HW1 3719   3.437   0.681   3.660
 1240SOL    HW2 3720   3.446   0.534   3.626
 1241SOL     OW 3721   1.835   3.179   2.951
 1241SOL    HW1 3722   1.911   3.140   2.994
 1241SOL    HW2 3723   1.873   3.240   2.887
 1242SOL     OW 3724   1.162   4.090   2.806
 1242SOL    HW1 3725   1.238   4.105   2.862
 1242SOL    HW2 3726   1.105   4.033   2.857
 1243SOL     OW 3727   0.854   5.077   4.246
 1243SOL    HW1 3728   0.769   5.041   4.223
 1243SOL    HW2 3729   0.889   5.111   4.164
 1244SOL     OW 3730   1.279   0.822   2.634
 1244SOL    HW1 3731   1.295   0.905   2.589
 1244SOL    HW2 3732   1.361   0.805   2.681
 1245SOL     OW 3733   1.562   0.623   1.530
 1245SOL    HW1 3734   1.642   0.669   1.553
 1245SOL    HW2 3735   1.583   0.575   1.450
 1246SOL     OW 3736   4.100   4.245   4.726
 1246SOL    HW1 3737   4.038   4.291   4.669
 1246SOL    HW2 3738   4.122   4.165   4.678
 1247SOL     OW 3739   0.591   2.172   4.988
 1247SOL    HW1 3740   0.597   2.248   4.930
 1247SOL    HW2 3741   0.500   2.172   5.018
 1248SOL     OW 3742   2.572   2.318   4.592
 1248SOL    HW1 3743   2.521   2.269   4.657
 1248SOL    HW2 3744   2.610   2.391   4.641
 1249SOL     OW 3745   2.538   0.891   4.155
 1249SOL    HW1 3746   2.519   0.984   4.141
 1249SOL    HW2 3747   2.451   0.851   4.165
 1250SOL     OW 3748   1.327   0.642   0.079
 1250SOL    HW1 3749   1.341   0.557   0.038
 1250SOL    HW2 3750   1.414   0.682   0.082
 1251SOL     OW 3751   2.257   4.477   2.867
 1251SOL    HW1 3752   2.267   4.493   2.773
 1251SOL    HW2 3753   2.308   4.397   2.883
 1252SOL     OW 3754   1.805   0.451   4.909
 1252SOL    HW1 3755   1.723   0.435   4.862
 1252SOL    HW2 3756   1.862   0.380   4.882
 1253SOL     OW 3757   1.741   1.068   3.509
 1253SOL    HW1 3758   1.805   1.072   3.438
 1253SOL    HW2 3759   1.686   0.992   3.488
 1254SOL     OW 3760   0.486   4.438   2.843
 1254SOL    HW1 3761   0.501   4.522   2.889
 1254SOL    HW2 3762   0.562   4.429   2.785
 1255SOL     OW 3763   3.551   5.059   1.792
 1255SOL    HW1 3764   3.633   5.040   1.747
 1255SOL    HW2 3765   3.575   5.122   1.860
 1256SOL     OW 3766   1.750   0.568   3.457
 1256SOL    HW1 3767   1.809   0.527   3.394
 1256SOL    HW2 3768   1.808   0.607   3.523
 1257SOL     OW 3769   4.304   1.117   2.017
 1257SOL    HW1 3770   4.301   1.103   2.111
 1257SOL    HW2 3771   4.223   1.077   1.984
 1258SOL     OW 3772   2.204   1.684   4.534
 1258SOL    HW1 3773   2.160   1.720   4.457
 1258SOL    HW2 3774   2.188   1.748   4.603
 1259SOL     OW 3775   3.661   2.616   3.031
 1259SOL    HW1 3776   3.706   2.608   2.947
 1259SOL    HW2 3777   3.568   2.605   3.009
 1260SOL     OW 3778   2.754   3.984   2.919
 1260SOL    HW1 3779   2.692   4.056   2.912
 1260SOL    HW2 3780   2.828   4.021   2.968
 1261SOL     OW 3781   2.830   4.845   0.710
 1261SOL    HW1 3782   2.883   4.884   0.642
 1261SOL    HW2 3783   2.808   4.758   0.677
 1262SOL     OW 3784   2.013   4.674   4.675
 1262SOL    HW1 3785   2.073   4.704   4.607
 1262SOL    HW2 3786   1.930   4.718   4.656
 1263SOL     OW 3787   2.594   0.219   1.486
 1263SOL    HW1 3788   2.577   0.133   1.524
 1263SOL    HW2 3789   2.689   0.222   1.476
 1264SOL     OW 3790   3.447   3.266   2.274
 1264SOL    HW1 3791   3.529   3.256   2.226
 1264SOL    HW2 3792   3.431   3.361   2.274
 1265SOL     OW 3793   0.530   3.257   3.675
 1265SOL    HW1 3794   0.550   3.266   3.768
 1265SOL    HW2 3795   0.560   3.338   3.635
 1266SOL     OW 3796   0.385   2.532   2.965
 1266SOL    HW1 3797   0.438   2.589   2.910
 1266SOL    HW2 3798   0.447   2.474   3.008
 1267SOL     OW 3799   3.889   3.074   3.862
 1267SOL    HW1 3800   3.932   2.988   3.870
 1267SOL    HW2 3801   3.895   3.094   3.768
 1268SOL     OW 3802   0.169   1.038   3.431
 1268SOL    HW1 3803   0.206   1.101   3.369
 1268SOL    HW2 3804   0.082   1.019   3.396
 1269SOL     OW 3805   1.863   2.772   2.484
 1269SOL    HW1 3806   1.772   2.764   2.513
 1269SOL    HW2 3807   1.902   2.835   2.545
 1270SOL     OW 3808   2.644   0.651   1.267
 1270SOL    HW1 3809   2.565   0.696   1.238
 1270SOL    HW2 3810   2.616   0.602   1.344
 1271SOL     OW 3811   0.488   3.273   2.605
 1271SOL    HW1 3812   0.399   3.282   2.570
 1271SOL    HW2 3813   0.540   3.245   2.530
 1272SOL     OW 3814   3.430   2.567   1.670
 1272SOL    HW1 3815   3.343   2.579   1.632
 1272SOL    HW2 3816   3.423   2.488   1.724
 1273SOL     OW 3817   1.659   4.401   4.776
 1273SOL    HW1 3818   1.616   4.448   4.847
 1273SOL    HW2 3819   1.611   4.426   4.698
 1274SOL     OW 3820   1.695   3.934   3.743
 1274SOL    HW1 3821   1.717   3.977   3.661
 1274SOL    HW2 3822   1.650   3.853   3.717
 1275SOL     OW 3823   4.518   3.707   4.169
 1275SOL    HW1 3824   4.613   3.693   4.174
 1275SOL    HW2 3825   4.499   3.707   4.076
 1276SOL     OW 3826   3.446   1.698   4.781
 1276SOL    HW1 3827   3.449   1.786   4.819
 1276SOL    HW2 3828   3.410   1.711   4.693
 1277SOL     OW 3829   2.471   2.524   3.783
 1277SOL    HW1 3830   2.521   2.587   3.836
 1277SOL    HW2 3831   2.521   2.518   3.701
 1278SOL     OW 3832   4.507   0.528   2.010
 1278SOL    HW1 3833   4.526   0.619   2.033
 1278SOL    HW2 3834   4.583   0.479   2.041
 1279SOL     OW 3835   0.771   4.268   0.107
 1279SOL    HW1 3836   0.698   4.216   0.141
 1279SOL    HW2 3837   0.737   4.357   0.102
 1280SOL     OW 3838   2.533   1.746   2.324
 1280SOL    HW1 3839   2.588   1.672   2.297
 1280SOL    HW2 3840   2.525   1.736   2.419
 1281SOL     OW 3841   4.640   5.157   3.087
 1281SOL    HW1 3842   4.584   5.082   3.067
 1281SOL    HW2 3843   4.598   5.200   3.161
 1282SOL     OW 3844   4.710   2.193   1.847
 1282SOL    HW1 3845   4.727   2.287   1.849
 1282SOL    HW2 3846   4.627   2.185   1.799
 1283SOL     OW 3847   0.828   4.916   3.052
 1283SOL    HW1 3848   0.876   4.984   3.099
 1283SOL    HW2 3849   0.893   4.847   3.038
 1284SOL     OW 3850   3.654   1.757   4.492
 1284SOL    HW1 3851   3.616   1.676   4.526
 1284SOL    HW2 3852   3.748   1.750   4.512
 1285SOL     OW 3853   0.204   0.654   1.952
 1285SOL    HW1 3854   0.275   0.673   2.013
 1285SOL    HW2 3855   0.125   0.683   1.997
 1286SOL     OW 3856   0.886   4.298   1.736
 1286SOL    HW1 3857   0.826   4.315   1.809
 1286SOL    HW2 3858   0.914   4.207   1.748
 1287SOL     OW 3859   0.415   1.476   5.096
 1287SOL    HW1 3860   0.497   1.524   5.110
 1287SOL    HW2 3861   0.419   1.403   5.158
 1288SOL     OW 3862   0.512   3.891   4.539
 1288SOL    HW1 3863   0.464   3.810   4.557
 1288SOL    HW2 3864   0.554   3.913   4.622
 1289SOL     OW 3865   1.760   2.594   1.595
 1289SOL    HW1 3866   1.834   2.642   1.557
 1289SOL    HW2 3867   1.687   2.609   1.534
 1290SOL     OW 3868   0.934   4.270   3.884
 1290SOL    HW1 3869   0.890   4.348   3.918
 1290SOL    HW2 3870   0.974   4.230   3.962
 1291SOL     OW 3871   4.480   2.547   1.048
 1291SOL    HW1 3872   4.553   2.551   0.986
 1291SOL    HW2 3873   4.494   2.467   1.097
 1292SOL     OW 3874   2.317   1.240   2.573
 1292SOL    HW1 3875   2.410   1.252   2.588
 1292SOL    HW2 3876   2.293   1.309   2.511
 1293SOL     OW 3877   3.315   5.097   2.798
 1293SOL    HW1 3878   3.266   5.100   2.880
 1293SOL    HW2 3879   3.248   5.105   2.730
 1294SOL     OW 3880   0.763   4.969   2.779
 1294SOL    HW1 3881   0.795   4.947   2.866
 1294SOL    HW2 3882   0.826   4.929   2.719
 1295SOL     OW 3883   4.939   0.346   4.150
 1295SOL    HW1 3884   4.955   0.252   4.141
 1295SOL    HW2 3885   4.961   0.365   4.241
 1296SOL     OW 3886   2.850   2.029   3.817
 1296SOL    HW1 3887   2.791   2.028   3.742
 1296SOL    HW2 3888   2.853   1.939   3.847
 1297SOL     OW 3889   1.563   1.296   0.866
 1297SOL    HW1 3890   1.506   1.225   0.896
 1297SOL    HW2 3891   1.651   1.257   0.864
 1298SOL     OW 3892   0.625   2.297   4.452
 1298SOL    HW1 3893   0.638   2.206   4.424
 1298SOL    HW2 3894   0.532   2.302   4.475
 1299SOL     OW 3895   4.185   2.871   0.590
 1299SOL    HW1 3896   4.237   2.921   0.653
 1299SOL    HW2 3897   4.094   2.890   0.615
 1300SOL     OW 3898   0.536   4.049   1.432
 1300SOL    HW1 3899   0.465   4.065   1.494
 1300SOL    HW2 3900   0.495   4.062   1.346
 1301SOL     OW 3901   0.328   4.569   0.444
 1301SOL    HW1 3902   0.336   4.600   0.353
 1301SOL    HW2 3903   0.289   4.643   0.491
 1302SOL     OW 3904   4.375   4.309   4.679
 1302SOL    HW1 3905   4.382   4.379   4.744
 1302SOL    HW2 3906   4.286   4.276   4.688
 1303SOL     OW 3907   1.220   1.171   1.753
 1303SOL    HW1 3908   1.183   1.195   1.838
 1303SOL    HW2 3909   1.154   1.199   1.689
 1304SOL     OW 3910   1.015   3.068   1.299
 1304SOL    HW1 3911   0.991   3.020   1.220
 1304SOL    HW2 3912   0.933   3.101   1.334
 1305SOL     OW 3913   3.532   1.919   2.186
 1305SOL    HW1 3914   3.471   1.952   2.252
 1305SOL    HW2 3915   3.555   1.995   2.133
 1306SOL     OW 3916   4.975   2.621   3.876
 1306SOL    HW1 3917   5.044   2.685   3.893
 1306SOL    HW2 3918   4.904   2.645   3.936
 1307SOL     OW 3919   4.067   4.650   4.724
 1307SOL    HW1 3920   4.087   4.729   4.674
 1307SOL    HW2 3921   3.972   4.638   4.713
 1308SOL     OW 3922   4.308   1.494   5.010
 1308SOL    HW1 3923   4.242   1.564   5.014
 1308SOL    HW2 3924   4.370   1.516   5.080
 1309SOL     OW 3925   3.650   4.992   2.300
 1309SOL    HW1 3926   3.703   5.071   2.308
 1309SOL    HW2 3927   3.688   4.932   2.365
 1310SOL     OW 3928   0.163   3.147   3.196
 1310SOL    HW1 3929   0.247   3.164   3.152
 1310SOL    HW2 3930   0.181   3.166   3.288
 1311SOL     OW 3931   3.770   0.072   1.904
 1311SOL    HW1 3932   3.796   0.131   1.834
 1311SOL    HW2 3933   3.752   0.129   1.979
 1312SOL     OW 3934   5.056   4.869   3.407
 1312SOL    HW1 3935   4.975   4.920   3.400
 1312SOL    HW2 3936   5.115   4.925   3.457
 1313SOL     OW 3937   3.854   4.507   1.876
 1313SOL    HW1 3938   3.880   4.558   1.952
 1313SOL    HW2 3939   3.856   4.416   1.905
 1314SOL     OW 3940   0.258   1.868   0.783
 1314SOL    HW1 3941   0.350   1.843   0.794
 1314SOL    HW2 3942   0.260   1.962   0.764
 1315SOL     OW 3943   0.153   4.331   4.273
 1315SOL    HW1 3944   0.134   4.417   4.311
 1315SOL    HW2 3945   0.191   4.281   4.345
 1316SOL     OW 3946   4.276   4.197   0.369
 1316SOL    HW1 3947   4.338   4.229   0.303
 1316SOL    HW2 3948   4.325   4.200   0.451
 1317SOL     OW 3949   2.622   2.007   1.223
 1317SOL    HW1 3950   2.718   2.002   1.216
 1317SOL    HW2 3951   2.597   2.079   1.165
 1318SOL     OW 3952   2.505   2.516   2.122
 1318SOL    HW1 3953   2.571   2.447   2.113
 1318SOL    HW2 3954   2.493   2.550   2.033
 1319SOL     OW 3955   2.769   0.209   0.158
 1319SOL    HW1 3956   2.755   0.122   0.197
 1319SOL    HW2 3957   2.835   0.195   0.091
 1320SOL     OW 3958   3.887   4.640   1.652
 1320SOL    HW1 3959   3.862   4.720   1.698
 1320SOL    HW2 3960   3.900   4.575   1.721
 1321SOL     OW 3961   2.772   4.104   3.215
 1321SOL    HW1 3962   2.733   4.022   3.245
 1321SOL    HW2 3963   2.866   4.093   3.232
 1322SOL     OW 3964   1.532   4.294   2.447
 1322SOL    HW1 3965   1.456   4.264   2.397
 1322SOL    HW2 3966   1.538   4.232   2.520
 1323SOL     OW 3967   3.826   0.460   1.829
 1323SOL    HW1 3968   3.835   0.433   1.737
 1323SOL    HW2 3969   3.732   0.470   1.842
 1324SOL     OW 3970   0.299   2.894   2.994
 1324SOL    HW1 3971   0.215   2.848   2.995
 1324SOL    HW2 3972   0.291   2.956   2.922
 1325SOL     OW 3973   1.441   4.293   1.011
 1325SOL    HW1 3974   1.363   4.349   1.017
 1325SOL    HW2 3975   1.405   4.205   0.999
 1326SOL     OW 3976   3.439   2.168   0.671
 1326SOL    HW1 3977   3.349   2.197   0.681
 1326SOL    HW2 3978   3.457   2.178   0.577
 1327SOL     OW 3979   1.273   3.193   1.825
 1327SOL    HW1 3980   1.338   3.144   1.774
 1327SOL    HW2 3981   1.308   3.282   1.829
 1328SOL     OW 3982   3.214   4.021   0.507
 1328SOL    HW1 3983   3.296   4.070   0.506
 1328SOL    HW2 3984   3.236   3.937   0.467
 1329SOL     OW 3985   2.324   4.299   4.213
 1329SOL    HW1 3986   2.387   4.281   4.283
 1329SOL    HW2 3987   2.301   4.213   4.178
 1330SOL     OW 3988   2.061   0.934   4.037
 1330SOL    HW1 3989   2.088   1.024   4.018
 1330SOL    HW2 3990   1.982   0.944   4.091
 1331SOL     OW 3991   4.258   4.894   2.361
 1331SOL    HW1 3992   4.303   4.910   2.444
 1331SOL    HW2 3993   4.327   4.867   2.300
 1332SOL     OW 3994   1.964   1.220   4.389
 1332SOL    HW1 3995   2.049   1.263   4.400
 1332SOL    HW2 3996   1.919   1.233   4.472
 1333SOL     OW 3997   2.654   1.833   3.042
 1333SOL    HW1 3998   2.692   1.757   2.999
 1333SOL    HW2 3999   2.728   1.878   3.083
 1334SOL     OW 4000   3.184   0.776   0.312
 1334SOL    HW1 4001   3.217   0.811   0.395
 1334SOL    HW2 4002   3.251   0.801   0.248
 1335SOL     OW 4003   4.173   2.955   3.132
 1335SOL    HW1 4004   4.237   2.956   3.203
 1335SOL    HW2 4005   4.139   3.045   3.129
 1336SOL     OW 4006   2.767   2.774   1.583
 1336SOL    HW1 4007   2.842   2.823   1.551
 1336SOL    HW2 4008   2.794   2.743   1.670
 1337SOL     OW 4009   1.209   0.550   2.871
 1337SOL    HW1 4010   1.298   0.513   2.870
 1337SOL    HW2 4011   1.220   0.637   2.833
 1338SOL     OW 4012   1.697   2.770   0.070
 1338SOL    HW1 4013   1.758   2.761   0.142
 1338SOL    HW2 4014   1.752   2.791  -0.006
 1339SOL     OW 4015   4.951   4.849   0.221
 1339SOL    HW1 4016   4.995   4.933   0.208
 1339SOL    HW2 4017   4.910   4.829   0.137
 1340SOL     OW 4018   1.789   4.465   0.737
 1340SOL    HW1 4019   1.732   4.433   0.668
 1340SOL    HW2 4020   1.876   4.434   0.712
 1341SOL     OW 4021   2.710   1.953   4.479
 1341SOL    HW1 4022   2.615   1.945   4.481
 1341SOL    HW2 4023   2.726   2.043   4.452
 1342SOL     OW 4024   1.485   0.118   4.570
 1342SOL    HW1 4025   1.471   0.091   4.661
 1342SOL    HW2 4026   1.426   0.062   4.519
 1343SOL     OW 4027   3.420   4.965   2.138
 1343SOL    HW1 4028   3.450   4.946   2.049
 1343SOL    HW2 4029   3.501   4.977   2.188
 1344SOL     OW 4030   1.039   0.160   4.082
 1344SOL    HW1 4031   0.972   0.134   4.019
 1344SOL    HW2 4032   0.991   0.184   4.161
 1345SOL     OW 4033   4.552   4.450   1.005
 1345SOL    HW1 4034   4.601   4.530   1.022
 1345SOL    HW2 4035   4.534   4.414   1.091
 1346SOL     OW 4036   4.480   2.371   1.435
 1346SOL    HW1 4037   4.415   2.330   1.378
 1346SOL    HW2 4038   4.443   2.364   1.523
 1347SOL     OW 4039   4.124   1.653   4.104
 1347SOL    HW1 4040   4.044   1.703   4.120
 1347SOL    HW2 4041   4.171   1.655   4.187
 1348SOL     OW 4042   4.290   4.589   2.481
 1348SOL    HW1 4043   4.348   4.618   2.411
 1348SOL    HW2 4044   4.202   4.600   2.446
 1349SOL     OW 4045   0.836   3.156   3.106
 1349SOL    HW1 4046   0.800   3.111   3.029
 1349SOL    HW2 4047   0.763   3.210   3.137
 1350SOL     OW 4048   0.181   1.927   1.503
 1350SOL    HW1 4049   0.160   2.021   1.504
 1350SOL    HW2 4050   0.156   1.898   1.415
 1351SOL     OW 4051   5.088   5.020   3.829
 1351SOL    HW1 4052   5.032   5.008   3.752
 1351SOL    HW2 4053   5.143   4.942   3.831
 1352SOL     OW 4054   4.755   0.815   4.582
 1352SOL    HW1 4055   4.685   0.854   4.635
 1352SOL    HW2 4056   4.731   0.722   4.576
 1353SOL     OW 4057   0.061   1.314   3.293
 1353SOL    HW1 4058   0.094   1.401   3.318
 1353SOL    HW2 4059  -0.002   1.292   3.361
 1354SOL     OW 4060   3.406   3.556   2.261
 1354SOL    HW1 4061   3.373   3.546   2.172
 1354SOL    HW2 4062   3.434   3.648   2.266
 1355SOL     OW 4063   2.215   0.245   2.486
 1355SOL    HW1 4064   2.195   0.191   2.562
 1355SOL    HW2 4065   2.148   0.314   2.487
 1356SOL     OW 4066   2.339   2.911   3.296
 1356SOL    HW1 4067   2.388   2.830   3.311
 1356SOL    HW2 4068   2.387   2.956   3.227
 1357SOL     OW 4069   0.991   0.478   0.764
 1357SOL    HW1 4070   0.900   0.490   0.737
 1357SOL    HW2 4071   0.985   0.459   0.858
 1358SOL     OW 4072   1.313   3.878   2.193
 1358SOL    HW1 4073   1.301   3.837   2.107
 1358SOL    HW2 4074   1.286   3.811   2.256
 1359SOL     OW 4075   0.228   3.629   3.687
 1359SOL    HW1 4076   0.215   3.685   3.611
 1359SOL    HW2 4077   0.182   3.548   3.665
 1360SOL     OW 4078   3.670   4.758   1.041
 1360SOL    HW1 4079   3.588   4.790   1.003
 1360SOL    HW2 4080   3.643   4.691   1.103
 1361SOL     OW 4081   2.659   0.851   0.869
 1361SOL    HW1 4082   2.743   0.809   0.887
 1361SOL    HW2 4083   2.663   0.874   0.776
 1362SOL     OW 4084   2.207   2.465   5.028
 1362SOL    HW1 4085   2.297   2.489   5.007
 1362SOL    HW2 4086   2.199   2.485   5.122
 1363SOL     OW 4087   1.375   0.100   3.319
 1363SOL    HW1 4088   1.470   0.115   3.320
 1363SOL    HW2 4089   1.341   0.159   3.386
 1364SOL     OW 4090   4.030   1.730   4.839
 1364SOL    HW1 4091   4.005   1.820   4.823
 1364SOL    HW2 4092   4.093   1.734   4.911
 1365SOL     OW 4093   2.413   3.687   4.969
 1365SOL    HW1 4094   2.332   3.705   5.017
 1365SOL    HW2 4095   2.476   3.750   5.004
 1366SOL     OW 4096   4.540   2.880   4.090
 1366SOL    HW1 4097   4.488   2.834   4.156
 1366SOL    HW2 4098   4.475   2.917   4.030
 1367SOL     OW 4099   0.059   1.319   3.709
 1367SOL    HW1 4100   0.090   1.235   3.743
 1367SOL    HW2 4101   0.123   1.342   3.642
 1368SOL     OW 4102   1.516   0.704   3.760
 1368SOL    HW1 4103   1.600   0.704   3.806
 1368SOL    HW2 4104   1.484   0.794   3.770
 1369SOL     OW 4105   2.886   2.988   1.096
 1369SOL    HW1 4106   2.854   3.062   1.146
 1369SOL    HW2 4107   2.816   2.969   1.033
 1370SOL     OW 4108   2.193   4.753   2.937
 1370SOL    HW1 4109   2.191   4.760   3.033
 1370SOL    HW2 4110   2.227   4.665   2.921
 1371SOL     OW 4111   4.208   2.881   2.170
 1371SOL    HW1 4112   4.193   2.960   2.118
 1371SOL    HW2 4113   4.142   2.818   2.139
 1372SOL     OW 4114   1.795   0.142   1.888
 1372SOL    HW1 4115   1.764   0.228   1.916
 1372SOL    HW2 4116   1.883   0.157   1.855
 1373SOL     OW 4117   2.684   2.952   0.900
 1373SOL    HW1 4118   2.603   2.954   0.849
 1373SOL    HW2 4119   2.725   2.869   0.875
 1374SOL     OW 4120   4.189   3.779   1.893
 1374SOL    HW1 4121   4.113   3.732   1.858
 1374SOL    HW2 4122   4.174   3.781   1.988
 1375SOL     OW 4123   3.923   1.501   1.602
 1375SOL    HW1 4124   3.857   1.446   1.559
 1375SOL    HW2 4125   3.917   1.585   1.557
 1376SOL     OW 4126   4.396   4.666   3.858
 1376SOL    HW1 4127   4.376   4.619   3.939
 1376SOL    HW2 4128   4.486   4.641   3.838
 1377SOL     OW 4129   3.153   2.014   4.384
 1377SOL    HW1 4130   3.103   1.970   4.316
 1377SOL    HW2 4131   3.094   2.018   4.459
 1378SOL     OW 4132   2.544   0.154   1.084
 1378SOL    HW1 4133   2.619   0.167   1.141
 1378SOL    HW2 4134   2.524   0.060   1.091
 1379SOL     OW 4135   1.733   2.359   4.752
 1379SOL    HW1 4136   1.782   2.428   4.798
 1379SOL    HW2 4137   1.752   2.374   4.659
 1380SOL     OW 4138   4.065   4.156   1.031
 1380SOL    HW1 4139   4.131   4.219   1.059
 1380SOL    HW2 4140   4.096   4.124   0.946
 1381SOL     OW 4141   3.908   1.497   3.936
 1381SOL    HW1 4142   3.885   1.556   3.865
 1381SOL    HW2 4143   3.950   1.554   4.001
 1382SOL     OW 4144   0.074   4.529   1.012
 1382SOL    HW1 4145   0.110   4.608   0.972
 1382SOL    HW2 4146  -0.005   4.511   0.961
 1383SOL     OW 4147   0.313   0.438   4.940
 1383SOL    HW1 4148   0.373   0.475   4.875
 1383SOL    HW2 4149   0.337   0.345   4.943
 1384SOL     OW 4150   3.679   5.014   4.135
 1384SOL    HW1 4151   3.681   5.087   4.196
 1384SOL    HW2 4152   3.770   4.989   4.124
 1385SOL     OW 4153   3.414   0.230   1.744
 1385SOL    HW1 4154   3.395   0.139   1.717
 1385SOL    HW2 4155   3.422   0.278   1.662
 1386SOL     OW 4156   3.390   4.638   1.405
 1386SOL    HW1 4157   3.465   4.607   1.456
 1386SOL    HW2 4158   3.389   4.733   1.418
 1387SOL     OW 4159   0.016   1.793   1.747
 1387SOL    HW1 4160   0.033   1.886   1.737
 1387SOL    HW2 4161  -0.030   1.786   1.830
 1388SOL     OW 4162   2.008   4.430   1.088
 1388SOL    HW1 4163   2.036   4.430   1.180
 1388SOL    HW2 4164   1.915   4.410   1.091
 1389SOL     OW 4165   2.349   1.064   2.839
 1389SOL    HW1 4166   2.342   1.046   2.746
 1389SOL    HW2 4167   2.444   1.062   2.857
 1390SOL     OW 4168   4.225   0.585   1.054
 1390SOL    HW1 4169   4.138   0.620   1.075
 1390SOL    HW2 4170   4.218   0.491   1.072
 1391SOL     OW 4171   3.897   0.120   4.281
 1391SOL    HW1 4172   3.840   0.194   4.301
 1391SOL    HW2 4173   3.887   0.106   4.187
 1392SOL     OW 4174   0.323   1.298   3.586
 1392SOL    HW1 4175   0.374   1.310   3.666
 1392SOL    HW2 4176   0.312   1.203   3.578
 1393SOL     OW 4177   4.118   5.158   1.297
 1393SOL    HW1 4178   4.159   5.244   1.309
 1393SOL    HW2 4179   4.043   5.175   1.240
 1394SOL     OW 4180   3.634   2.354   3.488
 1394SOL    HW1 4181   3.628   2.384   3.398
 1394SOL    HW2 4182   3.566   2.403   3.534
 1395SOL     OW 4183   0.531   1.611   0.901
 1395SOL    HW1 4184   0.540   1.605   0.996
 1395SOL    HW2 4185   0.568   1.696   0.878
 1396SOL     OW 4186   1.170   4.699   0.768
 1396SOL    HW1 4187   1.152   4.664   0.680
 1396SOL    HW2 4188   1.100   4.664   0.822
 1397SOL     OW 4189   3.886   4.208   4.292
 1397SOL    HW1 4190   3.938   4.145   4.241
 1397SOL    HW2 4191   3.865   4.278   4.230
 1398SOL     OW 4192   0.970   5.105   4.490
 1398SOL    HW1 4193   0.965   5.192   4.527
 1398SOL    HW2 4194   0.912   5.107   4.413
 1399SOL     OW 4195   0.356   1.699   2.051
 1399SOL    HW1 4196   0.433   1.748   2.081
 1399SOL    HW2 4197   0.327   1.746   1.972
 1400SOL     OW 4198   4.096   5.051   0.672
 1400SOL    HW1 4199   4.030   4.996   0.630
 1400SOL    HW2 4200   4.080   5.041   0.766
 1401SOL     OW 4201   3.501   0.292   2.113
 1401SOL    HW1 4202   3.447   0.255   2.182
 1401SOL    HW2 4203   3.581   0.240   2.114
 1402SOL     OW 4204   2.247   0.296   1.525
 1402SOL    HW1 4205   2.264   0.385   1.493
 1402SOL    HW2 4206   2.310   0.284   1.595
 1403SOL     OW 4207   2.903   0.411   1.946
 1403SOL    HW1 4208   2.989   0.369   1.951
 1403SOL    HW2 4209   2.921   0.499   1.911
 1404SOL     OW 4210   2.885   1.480   1.456
 1404SOL    HW1 4211   2.929   1.397   1.435
 1404SOL    HW2 4212   2.817   1.455   1.519
 1405SOL     OW 4213   1.460   0.696   2.373
 1405SOL    HW1 4214   1.491   0.770   2.425
 1405SOL    HW2 4215   1.540   0.648   2.351
 1406SOL     OW 4216   0.770   1.814   1.990
 1406SOL    HW1 4217   0.721   1.782   2.065
 1406SOL    HW2 4218   0.856   1.771   1.997
 1407SOL     OW 4219   3.160   1.025   4.781
 1407SOL    HW1 4220   3.067   1.005   4.768
 1407SOL    HW2 4221   3.174   1.015   4.875
 1408SOL     OW 4222   3.457   1.196   3.735
 1408SOL    HW1 4223   3.486   1.147   3.659
 1408SOL    HW2 4224   3.456   1.287   3.706
 1409SOL     OW 4225   2.641   3.124   2.699
 1409SOL    HW1 4226   2.673   3.211   2.722
 1409SOL    HW2 4227   2.635   3.124   2.604
 1410SOL     OW 4228   2.064   5.096   2.282
 1410SOL    HW1 4229   2.089   5.121   2.193
 1410SOL    HW2 4230   2.082   5.002   2.286
 1411SOL     OW 4231   3.927   2.909   4.298
 1411SOL    HW1 4232   3.959   2.876   4.214
 1411SOL    HW2 4233   3.868   2.841   4.330
 1412SOL     OW 4234   5.130   4.968   2.558
 1412SOL    HW1 4235   5.198   4.929   2.504
 1412SOL    HW2 4236   5.175   4.991   2.640
 1413SOL     OW 4237   1.722   4.755   2.315
 1413SOL    HW1 4238   1.707   4.795   2.229
 1413SOL    HW2 4239   1.704   4.662   2.301
 1414SOL     OW 4240   3.176   2.254   0.679
 1414SOL    HW1 4241   3.108   2.306   0.720
 1414SOL    HW2 4242   3.199   2.302   0.599
 1415SOL     OW 4243   3.350   3.860   4.658
 1415SOL    HW1 4244   3.321   3.774   4.689
 1415SOL    HW2 4245   3.412   3.890   4.724
 1416SOL     OW 4246   4.884   3.473   1.824
 1416SOL    HW1 4247   4.897   3.549   1.767
 1416SOL    HW2 4248   4.844   3.508   1.903
 1417SOL     OW 4249   3.032   0.678   4.235
 1417SOL    HW1 4250   2.958   0.738   4.238
 1417SOL    HW2 4251   3.008   0.614   4.168
 1418SOL     OW 4252   4.479   4.734   3.487
 1418SOL    HW1 4253   4.553   4.757   3.432
 1418SOL    HW2 4254   4.406   4.720   3.426
 1419SOL     OW 4255   5.089   3.136   0.037
 1419SOL    HW1 4256   5.142   3.187   0.099
 1419SOL    HW2 4257   5.148   3.120  -0.037
 1420SOL     OW 4258   4.341   2.838   5.181
 1420SOL    HW1 4259   4.303   2.776   5.119
 1420SOL    HW2 4260   4.430   2.853   5.150
 1421SOL     OW 4261   1.309   4.120   0.524
 1421SOL    HW1 4262   1.349   4.066   0.455
 1421SOL    HW2 4263   1.223   4.080   0.538
 1422SOL     OW 4264   0.566   1.842   0.765
 1422SOL    HW1 4265   0.566   1.894   0.846
 1422SOL    HW2 4266   0.652   1.800   0.764
 1423SOL     OW 4267   2.624   2.569   3.555
 1423SOL    HW1 4268   2.719   2.557   3.546
 1423SOL    HW2 4269   2.600   2.624   3.480
 1424SOL     OW 4270   3.483   1.421   4.854
 1424SOL    HW1 4271   3.420   1.376   4.910
 1424SOL    HW2 4272   3.467   1.514   4.870
 1425SOL     OW 4273   0.418   2.892   2.560
 1425SOL    HW1 4274   0.351   2.893   2.492
 1425SOL    HW2 4275   0.425   2.800   2.586
 1426SOL     OW 4276   3.565   2.978   1.624
 1426SOL    HW1 4277   3.588   3.043   1.558
 1426SOL    HW2 4278   3.503   3.023   1.682
 1427SOL     OW 4279   3.467   0.958   2.783
 1427SOL    HW1 4280   3.398   1.025   2.789
 1427SOL    HW2 4281   3.546   1.004   2.812
 1428SOL     OW 4282   4.168   2.341   0.475
 1428SOL    HW1 4283   4.098   2.398   0.506
 1428SOL    HW2 4284   4.164   2.348   0.380
 1429SOL     OW 4285   0.805   1.548   4.665
 1429SOL    HW1 4286   0.745   1.605   4.714
 1429SOL    HW2 4287   0.891   1.566   4.702
 1430SOL     OW 4288   4.784   1.153   1.359
 1430SOL    HW1 4289   4.762   1.221   1.296
 1430SOL    HW2 4290   4.871   1.177   1.391
 1431SOL     OW 4291   1.579   3.112   1.123
 1431SOL    HW1 4292   1.672   3.093   1.133
 1431SOL    HW2 4293   1.564   3.188   1.179
 1432SOL     OW 4294   3.073   1.825   1.222
 1432SOL    HW1 4295   3.151   1.824   1.167
 1432SOL    HW2 4296   3.067   1.915   1.255
 1433SOL     OW 4297   4.946   2.996   1.667
 1433SOL    HW1 4298   4.958   3.018   1.760
 1433SOL    HW2 4299   4.931   2.902   1.666
 1434SOL     OW 4300   1.086   0.107   0.031
 1434SOL    HW1 4301   1.139   0.046  -0.020
 1434SOL    HW2 4302   1.061   0.058   0.109
 1435SOL     OW 4303   1.697   4.172   4.464
 1435SOL    HW1 4304   1.737   4.117   4.532
 1435SOL    HW2 4305   1.770   4.218   4.424
 1436SOL     OW 4306   3.948   0.258   1.000
 1436SOL    HW1 4307   3.858   0.233   0.976
 1436SOL    HW2 4308   3.995   0.260   0.917
 1437SOL     OW 4309   3.081   2.430   4.613
 1437SOL    HW1 4310   3.056   2.522   4.607
 1437SOL    HW2 4311   3.031   2.386   4.545
 1438SOL     OW 4312   1.754   2.612   4.489
 1438SOL    HW1 4313   1.761   2.675   4.417
 1438SOL    HW2 4314   1.802   2.651   4.561
 1439SOL     OW 4315   1.639   3.511   2.416
 1439SOL    HW1 4316   1.571   3.548   2.472
 1439SOL    HW2 4317   1.664   3.429   2.460
 1440SOL     OW 4318   3.652   1.265   1.758
 1440SOL    HW1 4319   3.623   1.352   1.786
 1440SOL    HW2 4320   3.601   1.204   1.812
 1441SOL     OW 4321   2.899   0.028   2.911
 1441SOL    HW1 4322   2.868   0.087   2.979
 1441SOL    HW2 4323   2.956   0.083   2.856
 1442SOL     OW 4324   4.804   5.052   3.318
 1442SOL    HW1 4325   4.828   5.079   3.229
 1442SOL    HW2 4326   4.806   5.134   3.369
 1443SOL     OW 4327   4.891   2.276   2.322
 1443SOL    HW1 4328   4.877   2.343   2.389
 1443SOL    HW2 4329   4.901   2.195   2.371
 1444SOL     OW 4330   2.787   4.563   1.529
 1444SOL    HW1 4331   2.779   4.655   1.556
 1444SOL    HW2 4332   2.751   4.562   1.440
 1445SOL     OW 4333   1.005   4.023   3.666
 1445SOL    HW1 4334   0.988   3.938   3.708
 1445SOL    HW2 4335   0.929   4.076   3.688
 1446SOL     OW 4336   0.458   2.852   1.896
 1446SOL    HW1 4337   0.522   2.817   1.959
 1446SOL    HW2 4338   0.511   2.874   1.819
 1447SOL     OW 4339   4.701   1.314   1.131
 1447SOL    HW1 4340   4.744   1.279   1.052
 1447SOL    HW2 4341   4.666   1.398   1.103
 1448SOL     OW 4342   0.115   2.880   1.189
 1448SOL    HW1 4343   0.043   2.863   1.128
 1448SOL    HW2 4344   0.181   2.814   1.167
 1449SOL     OW 4345   3.025   5.080   4.099
 1449SOL    HW1 4346   3.017   5.171   4.127
 1449SOL    HW2 4347   3.112   5.053   4.130
 1450SOL     OW 4348   0.089   4.464   0.674
 1450SOL    HW1 4349   0.157   4.406   0.640
 1450SOL    HW2 4350   0.120   4.552   0.655
 1451SOL     OW 4351   4.711   4.644   4.098
 1451SOL    HW1 4352   4.668   4.647   4.012
 1451SOL    HW2 4353   4.645   4.608   4.157
 1452SOL     OW 4354   3.643   0.760   2.816
 1452SOL    HW1 4355   3.645   0.683   2.759
 1452SOL    HW2 4356   3.575   0.816   2.779
 1453SOL     OW 4357   1.322   4.658   2.577
 1453SOL    HW1 4358   1.385   4.594   2.610
 1453SOL    HW2 4359   1.240   4.609   2.567
 1454SOL     OW 4360   4.782   3.081   3.359
 1454SOL    HW1 4361   4.819   3.091   3.271
 1454SOL    HW2 4362   4.858   3.061   3.414
 1455SOL     OW 4363   1.061   2.383   3.004
 1455SOL    HW1 4364   1.017   2.349   3.082
 1455SOL    HW2 4365   1.000   2.448   2.969
 1456SOL     OW 4366   0.626   3.901   4.799
 1456SOL    HW1 4367   0.702   3.848   4.773
 1456SOL    HW2 4368   0.624   3.894   4.894
 1457SOL     OW 4369   3.971   2.059   0.265
 1457SOL    HW1 4370   3.992   1.974   0.227
 1457SOL    HW2 4371   4.052   2.087   0.307
 1458SOL     OW 4372   1.506   2.864   1.230
 1458SOL    HW1 4373   1.411   2.868   1.241
 1458SOL    HW2 4374   1.526   2.940   1.176
 1459SOL     OW 4375   0.855   3.317   2.088
 1459SOL    HW1 4376   0.948   3.326   2.109
 1459SOL    HW2 4377   0.848   3.352   1.999
 1460SOL     OW 4378   1.122   0.899   4.587
 1460SOL    HW1 4379   1.043   0.928   4.542
 1460SOL    HW2 4380   1.191   0.908   4.522
 1461SOL     OW 4381   1.905   4.323   4.335
 1461SOL    HW1 4382   1.972   4.279   4.284
 1461SOL    HW2 4383   1.953   4.370   4.403
 1462SOL     OW 4384   0.161   3.872   4.560
 1462SOL    HW1 4385   0.211   3.794   4.584
 1462SOL    HW2 4386   0.171   3.879   4.465
 1463SOL     OW 4387   1.081   4.900   3.928
 1463SOL    HW1 4388   1.080   4.874   3.836
 1463SOL    HW2 4389   1.023   4.976   3.932
 1464SOL     OW 4390   2.096   4.474   2.160
 1464SOL    HW1 4391   2.150   4.543   2.122
 1464SOL    HW2 4392   2.080   4.503   2.250
 1465SOL     OW 4393   0.134   4.579   4.382
 1465SOL    HW1 4394   0.207   4.624   4.426
 1465SOL    HW2 4395   0.073   4.649   4.360
 1466SOL     OW 4396   0.037   4.905   1.883
 1466SOL    HW1 4397  -0.014   4.984   1.862
 1466SOL    HW2 4398   0.050   4.909   1.978
 1467SOL     OW 4399   0.866   3.662   2.867
 1467SOL    HW1 4400   0.785   3.637   2.911
 1467SOL    HW2 4401   0.838   3.688   2.779
 1468SOL     OW 4402   4.929   4.725   0.949
 1468SOL    HW1 4403   4.923   4.820   0.944
 1468SOL    HW2 4404   4.960   4.699   0.862
 1469SOL     OW 4405   0.857   4.106   2.731
 1469SOL    HW1 4406   0.814   4.108   2.816
 1469SOL    HW2 4407   0.939   4.154   2.745
 1470SOL     OW 4408   3.662   3.445   0.643
 1470SOL    HW1 4409   3.736   3.485   0.688
 1470SOL    HW2 4410   3.607   3.408   0.712
 1471SOL     OW 4411   2.902   4.475   3.298
 1471SOL    HW1 4412   2.940   4.441   3.379
 1471SOL    HW2 4413   2.807   4.468   3.311
 1472SOL     OW 4414   2.665   5.183   0.343
 1472SOL    HW1 4415   2.707   5.098   0.328
 1472SOL    HW2 4416   2.573   5.161   0.362
 1473SOL     OW 4417   4.621   5.057   1.716
 1473SOL    HW1 4418   4.556   5.108   1.762
 1473SOL    HW2 4419   4.609   5.080   1.624
 1474SOL     OW 4420   0.791   3.092   3.520
 1474SOL    HW1 4421   0.771   3.000   3.501
 1474SOL    HW2 4422   0.781   3.099   3.615
 1475SOL     OW 4423   1.210   5.134   2.761
 1475SOL    HW1 4424   1.285   5.193   2.771
 1475SOL    HW2 4425   1.218   5.102   2.671
 1476SOL     OW 4426   1.937   4.402   4.677
 1476SOL    HW1 4427   1.964   4.489   4.708
 1476SOL    HW2 4428   1.843   4.399   4.695
 1477SOL     OW 4429   1.467   2.537   1.954
 1477SOL    HW1 4430   1.538   2.589   1.916
 1477SOL    HW2 4431   1.396   2.600   1.968
 1478SOL     OW 4432   1.201   0.678   2.076
 1478SOL    HW1 4433   1.125   0.667   2.019
 1478SOL    HW2 4434   1.193   0.608   2.141
 1479SOL     OW 4435   0.464   2.445   4.149
 1479SOL    HW1 4436   0.517   2.389   4.092
 1479SOL    HW2 4437   0.517   2.456   4.227
 1480SOL     OW 4438   3.333   1.297   1.463
 1480SOL    HW1 4439   3.382   1.216   1.451
 1480SOL    HW2 4440   3.364   1.355   1.393
 1481SOL     OW 4441   1.463   2.052   1.281
 1481SOL    HW1 4442   1.423   1.969   1.307
 1481SOL    HW2 4443   1.511   2.082   1.358
 1482SOL     OW 4444   1.250   3.047   4.347
 1482SOL    HW1 4445   1.258   2.960   4.309
 1482SOL    HW2 4446   1.195   3.034   4.425
 1483SOL     OW 4447   2.312   0.106   0.663
 1483SOL    HW1 4448   2.375   0.035   0.656
 1483SOL    HW2 4449   2.265   0.088   0.745
 1484SOL     OW 4450   4.121   0.705   0.471
 1484SOL    HW1 4451   4.062   0.648   0.521
 1484SOL    HW2 4452   4.173   0.644   0.419
 1485SOL     OW 4453   1.814   1.076   4.606
 1485SOL    HW1 4454   1.724   1.105   4.620
 1485SOL    HW2 4455   1.809   0.981   4.610
 1486SOL     OW 4456   2.022   4.042   3.546
 1486SOL    HW1 4457   2.032   4.030   3.640
 1486SOL    HW2 4458   2.067   3.967   3.507
 1487SOL     OW 4459   3.526   3.740   4.491
 1487SOL    HW1 4460   3.463   3.797   4.536
 1487SOL    HW2 4461   3.610   3.761   4.530
 1488SOL     OW 4462   0.533   4.894   4.948
 1488SOL    HW1 4463   0.481   4.963   4.908
 1488SOL    HW2 4464   0.469   4.827   4.972
 1489SOL     OW 4465   3.922   1.766   1.514
 1489SOL    HW1 4466   3.904   1.780   1.421
 1489SOL    HW2 4467   4.016   1.781   1.524
 1490SOL     OW 4468   1.546   0.565   1.268
 1490SOL    HW1 4469   1.452   0.571   1.289
 1490SOL    HW2 4470   1.554   0.605   1.182
 1491SOL     OW 4471   3.682   1.979   4.644
 1491SOL    HW1 4472   3.665   1.900   4.593
 1491SOL    HW2 4473   3.607   1.986   4.703
 1492SOL     OW 4474   3.391   3.194   0.659
 1492SOL    HW1 4475   3.428   3.113   0.623
 1492SOL    HW2 4476   3.346   3.235   0.585
 1493SOL     OW 4477   4.473   1.441   3.220
 1493SOL    HW1 4478   4.407   1.393   3.170
 1493SOL    HW2 4479   4.473   1.398   3.306
 1494SOL     OW 4480   1.662   2.323   0.357
 1494SOL    HW1 4481   1.584   2.273   0.382
 1494SOL    HW2 4482   1.726   2.302   0.424
 1495SOL     OW 4483   1.454   1.757   1.349
 1495SOL    HW1 4484   1.380   1.697   1.337
 1495SOL    HW2 4485   1.470   1.792   1.261
 1496SOL     OW 4486   3.630   3.658   3.578
 1496SOL    HW1 4487   3.562   3.721   3.553
 1496SOL    HW2 4488   3.582   3.579   3.602
 1497SOL     OW 4489   4.258   4.108   3.979
 1497SOL    HW1 4490   4.242   4.128   3.886
 1497SOL    HW2 4491   4.299   4.022   3.978
 1498SOL     OW 4492   1.912   4.724   3.575
 1498SOL    HW1 4493   1.848   4.762   3.635
 1498SOL    HW2 4494   1.859   4.678   3.510
 1499SOL     OW 4495   3.697   3.321   3.722
 1499SOL    HW1 4496   3.724   3.409   3.750
 1499SOL    HW2 4497   3.731   3.263   3.790
 1500SOL     OW 4498   0.085   0.977   0.591
 1500SOL    HW1 4499  -0.006   0.973   0.562
 1500SOL    HW2 4500   0.080   0.968   0.686
 1501SOL     OW 4501   1.591   5.103   1.860
 1501SOL    HW1 4502   1.681   5.130   1.878
 1501SOL    HW2 4503   1.538   5.151   1.923
 1502SOL     OW 4504   2.476   1.099   0.309
 1502SOL    HW1 4505   2.397   1.104   0.255
 1502SOL    HW2 4506   2.534   1.040   0.261
 1503SOL     OW 4507   1.692   4.802   2.723
 1503SOL    HW1 4508   1.721   4.798   2.814
 1503SOL    HW2 4509   1.656   4.715   2.706
 1504SOL     OW 4510   4.678   0.178   1.865
 1504SOL    HW1 4511   4.620   0.183   1.790
 1504SOL    HW2 4512   4.630   0.222   1.936
 1505SOL     OW 4513   3.052   3.011   3.135
 1505SOL    HW1 4514   3.140   3.002   3.170
 1505SOL    HW2 4515   3.001   3.048   3.208
 1506SOL     OW 4516   2.986   0.860   3.150
 1506SOL    HW1 4517   3.036   0.781   3.172
 1506SOL    HW2 4518   2.967   0.900   3.234
 1507SOL     OW 4519   4.455   1.007   3.081
 1507SOL    HW1 4520   4.426   0.946   3.148
 1507SOL    HW2 4521   4.475   0.951   3.005
 1508SOL     OW 4522   3.544   1.011   0.662
 1508SOL    HW1 4523   3.625   0.961   0.666
 1508SOL    HW2 4524   3.572   1.103   0.667
 1509SOL     OW 4525   0.371   3.742   2.660
 1509SOL    HW1 4526   0.295   3.695   2.627
 1509SOL    HW2 4527   0.411   3.782   2.583
 1510SOL     OW 4528   3.916   2.162   1.814
 1510SOL    HW1 4529   3.839   2.167   1.871
 1510SOL    HW2 4530   3.890   2.105   1.742
 1511SOL     OW 4531   2.797   0.775   4.890
 1511SOL    HW1 4532   2.884   0.766   4.852
 1511SOL    HW2 4533   2.753   0.692   4.871
 1512SOL     OW 4534   5.097   2.931   4.558
 1512SOL    HW1 4535   5.089   2.952   4.651
 1512SOL    HW2 4536   5.008   2.914   4.529
 1513SOL     OW 4537   0.836   3.862   3.275
 1513SOL    HW1 4538   0.789   3.933   3.319
 1513SOL    HW2 4539   0.927   3.872   3.305
 1514SOL     OW 4540   1.436   1.237   0.324
 1514SOL    HW1 4541   1.488   1.219   0.402
 1514SOL    HW2 4542   1.417   1.150   0.288
 1515SOL     OW 4543   0.391   5.092   4.724
 1515SOL    HW1 4544   0.349   5.008   4.706
 1515SOL    HW2 4545   0.327   5.141   4.775
 1516SOL     OW 4546   4.267   4.853   2.054
 1516SOL    HW1 4547   4.213   4.929   2.033
 1516SOL    HW2 4548   4.222   4.780   2.011
 1517SOL     OW 4549   3.174   2.499   3.104
 1517SOL    HW1 4550   3.119   2.558   3.156
 1517SOL    HW2 4551   3.137   2.412   3.120
 1518SOL     OW 4552   1.997   3.727   2.864
 1518SOL    HW1 4553   2.048   3.781   2.925
 1518SOL    HW2 4554   1.961   3.790   2.801
 1519SOL     OW 4555   1.315   0.921   3.752
 1519SOL    HW1 4556   1.315   0.928   3.656
 1519SOL    HW2 4557   1.255   0.849   3.771
 1520SOL     OW 4558   4.470   4.760   4.384
 1520SOL    HW1 4559   4.453   4.708   4.306
 1520SOL    HW2 4560   4.429   4.711   4.455
 1521SOL     OW 4561   3.978   1.603   2.615
 1521SOL    HW1 4562   3.946   1.690   2.591
 1521SOL    HW2 4563   3.944   1.589   2.704
 1522SOL     OW 4564   0.877   4.383   3.282
 1522SOL    HW1 4565   0.886   4.386   3.378
 1522SOL    HW2 4566   0.845   4.470   3.259
 1523SOL     OW 4567   3.807   2.040   2.391
 1523SOL    HW1 4568   3.855   2.024   2.310
 1523SOL    HW2 4569   3.819   2.133   2.408
 1524SOL     OW 4570   2.437   4.832   4.614
 1524SOL    HW1 4571   2.497   4.786   4.672
 1524SOL    HW2 4572   2.406   4.765   4.553
 1525SOL     OW 4573   2.764   2.578   4.529
 1525SOL    HW1 4574   2.852   2.589   4.494
 1525SOL    HW2 4575   2.706   2.587   4.453
 1526SOL     OW 4576   4.417   4.204   4.166
 1526SOL    HW1 4577   4.357   4.191   4.093
 1526SOL    HW2 4578   4.373   4.161   4.240
 1527SOL     OW 4579   0.267   2.959   2.107
 1527SOL    HW1 4580   0.293   2.866   2.110
 1527SOL    HW2 4581   0.350   3.006   2.117
 1528SOL     OW 4582   3.687   5.142   4.385
 1528SOL    HW1 4583   3.636   5.157   4.464
 1528SOL    HW2 4584   3.736   5.223   4.373
 1529SOL     OW 4585   2.885   2.481   3.491
 1529SOL    HW1 4586   2.894   2.429   3.411
 1529SOL    HW2 4587   2.923   2.425   3.559
 1530SOL     OW 4588   3.518   2.818   1.846
 1530SOL    HW1 4589   3.431   2.780   1.839
 1530SOL    HW2 4590   3.543   2.838   1.755
 1531SOL     OW 4591   1.476   4.008   0.321
 1531SOL    HW1 4592   1.421   4.057   0.260
 1531SOL    HW2 4593   1.500   3.929   0.272
 1532SOL     OW 4594   3.537   1.520   0.258
 1532SOL    HW1 4595   3.445   1.517   0.286
 1532SOL    HW2 4596   3.533   1.523   0.163
 1533SOL     OW 4597   3.353   1.406   2.869
 1533SOL    HW1 4598   3.323   1.438   2.954
 1533SOL    HW2 4599   3.280   1.353   2.836
 1534SOL     OW 4600   1.077   4.444   2.081
 1534SOL    HW1 4601   1.081   4.358   2.123
 1534SOL    HW2 4602   1.082   4.507   2.153
 1535SOL     OW 4603   0.470   1.274   2.367
 1535SOL    HW1 4604   0.382   1.269   2.329
 1535SOL    HW2 4605   0.526   1.232   2.301
 1536SOL     OW 4606   2.510   4.227   5.139
 1536SOL    HW1 4607   2.498   4.319   5.114
 1536SOL    HW2 4608   2.475   4.222   5.228
 1537SOL     OW 4609   2.338   3.893   2.382
 1537SOL    HW1 4610   2.366   3.817   2.434
 1537SOL    HW2 4611   2.419   3.940   2.363
 1538SOL     OW 4612   3.871   1.023   1.334
 1538SOL    HW1 4613   3.838   1.069   1.412
 1538SOL    HW2 4614   3.793   1.005   1.282
 1539SOL     OW 4615   0.747   5.088   5.047
 1539SOL    HW1 4616   0.767   5.057   5.136
 1539SOL    HW2 4617   0.706   5.012   5.005
 1540SOL     OW 4618   1.254   5.124   5.060
 1540SOL    HW1 4619   1.202   5.047   5.036
 1540SOL    HW2 4620   1.345   5.094   5.058
 1541SOL     OW 4621   3.158   4.488   1.369
 1541SOL    HW1 4622   3.121   4.550   1.306
 1541SOL    HW2 4623   3.248   4.517   1.382
 1542SOL     OW 4624   3.865   2.328   3.656
 1542SOL    HW1 4625   3.855   2.415   3.619
 1542SOL    HW2 4626   3.786   2.315   3.709
 1543SOL     OW 4627   2.131   0.073   2.059
 1543SOL    HW1 4628   2.053   0.086   2.004
 1543SOL    HW2 4629   2.204   0.072   1.997
 1544SOL     OW 4630   1.115   5.050   3.018
 1544SOL    HW1 4631   1.161   5.078   2.939
 1544SOL    HW2 4632   1.107   4.955   3.009
 1545SOL     OW 4633   2.649   2.112   1.771
 1545SOL    HW1 4634   2.557   2.087   1.783
 1545SOL    HW2 4635   2.694   2.029   1.752
 1546SOL     OW 4636   3.195   4.534   1.648
 1546SOL    HW1 4637   3.187   4.449   1.604
 1546SOL    HW2 4638   3.192   4.598   1.577
 1547SOL     OW 4639   1.489   3.417   4.429
 1547SOL    HW1 4640   1.511   3.470   4.506
 1547SOL    HW2 4641   1.533   3.333   4.445
 1548SOL     OW 4642   3.325   2.780   0.959
 1548SOL    HW1 4643   3.414   2.749   0.944
 1548SOL    HW2 4644   3.296   2.812   0.874
 1549SOL     OW 4645   4.099   3.339   3.548
 1549SOL    HW1 4646   4.139   3.418   3.512
 1549SOL    HW2 4647   4.107   3.349   3.643
 1550SOL     OW 4648   2.419   0.917   3.858
 1550SOL    HW1 4649   2.475   0.865   3.801
 1550SOL    HW2 4650   2.384   0.985   3.801
 1551SOL     OW 4651   4.351   4.622   4.597
 1551SOL    HW1 4652   4.307   4.650   4.678
 1551SOL    HW2 4653   4.335   4.528   4.592
 1552SOL     OW 4654   2.920   0.694   2.481
 1552SOL    HW1 4655   2.978   0.645   2.422
 1552SOL    HW2 4656   2.952   0.784   2.477
 1553SOL     OW 4657   4.582   2.835   3.759
 1553SOL    HW1 4658   4.677   2.847   3.760
 1553SOL    HW2 4659   4.570   2.744   3.733
 1554SOL     OW 4660   4.879   3.328   4.397
 1554SOL    HW1 4661   4.825   3.253   4.425
 1554SOL    HW2 4662   4.967   3.305   4.426
 1555SOL     OW 4663   1.701   0.901   1.847
 1555SOL    HW1 4664   1.767   0.968   1.866
 1555SOL    HW2 4665   1.617   0.946   1.860
 1556SOL     OW 4666   4.157   4.851   4.118
 1556SOL    HW1 4667   4.189   4.873   4.206
 1556SOL    HW2 4668   4.205   4.910   4.059
 1557SOL     OW 4669   0.355   4.605   3.988
 1557SOL    HW1 4670   0.295   4.674   4.017
 1557SOL    HW2 4671   0.359   4.544   4.061
 1558SOL     OW 4672   3.395   4.557   4.398
 1558SOL    HW1 4673   3.322   4.609   4.433
 1558SOL    HW2 4674   3.353   4.483   4.355
 1559SOL     OW 4675   4.917   4.995   2.131
 1559SOL    HW1 4676   4.990   4.934   2.121
 1559SOL    HW2 4677   4.880   5.003   2.043
 1560SOL     OW 4678   4.564   4.907   0.184
 1560SOL    HW1 4679   4.469   4.903   0.175
 1560SOL    HW2 4680   4.597   4.915   0.094
 1561SOL     OW 4681   3.427   3.141   3.027
 1561SOL    HW1 4682   3.347   3.177   2.990
 1561SOL    HW2 4683   3.414   3.046   3.024
 1562SOL     OW 4684   1.369   1.365   1.092
 1562SOL    HW1 4685   1.371   1.294   1.029
 1562SOL    HW2 4686   1.416   1.437   1.050
 1563SOL     OW 4687   3.986   4.088   2.583
 1563SOL    HW1 4688   3.917   4.022   2.588
 1563SOL    HW2 4689   4.048   4.063   2.651
 1564SOL     OW 4690   4.982   0.839   0.147
 1564SOL    HW1 4691   4.892   0.869   0.139
 1564SOL    HW2 4692   5.027   0.907   0.196
 1565SOL     OW 4693   2.652   4.132   2.165
 1565SOL    HW1 4694   2.669   4.213   2.116
 1565SOL    HW2 4695   2.608   4.075   2.102
 1566SOL     OW 4696   3.942   4.086   0.648
 1566SOL    HW1 4697   4.022   4.065   0.696
 1566SOL    HW2 4698   3.972   4.125   0.566
 1567SOL     OW 4699   4.984   1.219   2.717
 1567SOL    HW1 4700   5.044   1.248   2.786
 1567SOL    HW2 4701   5.009   1.128   2.701
 1568SOL     OW 4702   3.447   0.695   1.254
 1568SOL    HW1 4703   3.398   0.635   1.310
 1568SOL    HW2 4704   3.379   0.739   1.202
 1569SOL     OW 4705   1.584   2.645   0.813
 1569SOL    HW1 4706   1.574   2.620   0.905
 1569SOL    HW2 4707   1.516   2.595   0.768
 1570SOL     OW 4708   3.469   1.283   2.475
 1570SOL    HW1 4709   3.545   1.226   2.490
 1570SOL    HW2 4710   3.424   1.243   2.400
 1571SOL     OW 4711   2.757   2.342   1.620
 1571SOL    HW1 4712   2.730   2.292   1.543
 1571SOL    HW2 4713   2.735   2.285   1.694
 1572SOL     OW 4714   0.587   1.665   5.148
 1572SOL    HW1 4715   0.643   1.655   5.224
 1572SOL    HW2 4716   0.643   1.707   5.082
 1573SOL     OW 4717   1.185   0.995   5.148
 1573SOL    HW1 4718   1.277   1.021   5.138
 1573SOL    HW2 4719   1.147   1.007   5.061
 1574SOL     OW 4720   2.082   3.306   1.246
 1574SOL    HW1 4721   2.055   3.393   1.217
 1574SOL    HW2 4722   2.159   3.321   1.302
 1575SOL     OW 4723   1.256   2.371   0.395
 1575SOL    HW1 4724   1.300   2.291   0.364
 1575SOL    HW2 4725   1.323   2.417   0.446
 1576SOL     OW 4726   2.385   3.115   2.822
 1576SOL    HW1 4727   2.475   3.128   2.793
 1576SOL    HW2 4728   2.382   3.023   2.850
 1577SOL     OW 4729   1.931   3.051   2.585
 1577SOL    HW1 4730   1.966   3.072   2.672
 1577SOL    HW2 4731   1.946   3.130   2.533
 1578SOL     OW 4732   3.641   4.423   3.618
 1578SOL    HW1 4733   3.566   4.461   3.663
 1578SOL    HW2 4734   3.683   4.368   3.684
 1579SOL     OW 4735   3.735   4.056   0.817
 1579SOL    HW1 4736   3.697   3.970   0.800
 1579SOL    HW2 4737   3.808   4.063   0.756
 1580SOL     OW 4738   2.240   4.034   2.845
 1580SOL    HW1 4739   2.182   4.108   2.862
 1580SOL    HW2 4740   2.277   4.051   2.759
 1581SOL     OW 4741   2.876   3.557   3.540
 1581SOL    HW1 4742   2.783   3.538   3.556
 1581SOL    HW2 4743   2.876   3.632   3.481
 1582SOL     OW 4744   0.516   5.131   1.443
 1582SOL    HW1 4745   0.451   5.074   1.484
 1582SOL    HW2 4746   0.465   5.204   1.407
 1583SOL     OW 4747   2.496   3.072   1.590
 1583SOL    HW1 4748   2.472   2.995   1.641
 1583SOL    HW2 4749   2.556   3.121   1.647
 1584SOL     OW 4750   2.130   3.719   4.585
 1584SOL    HW1 4751   2.215   3.758   4.565
 1584SOL    HW2 4752   2.066   3.777   4.543
 1585SOL     OW 4753   4.528   0.212   2.438
 1585SOL    HW1 4754   4.525   0.132   2.490
 1585SOL    HW2 4755   4.608   0.203   2.385
 1586SOL     OW 4756   0.328   1.314   0.377
 1586SOL    HW1 4757   0.386   1.327   0.452
 1586SOL    HW2 4758   0.258   1.378   0.389
 1587SOL     OW 4759   4.038   0.337   3.131
 1587SOL    HW1 4760   4.062   0.330   3.039
 1587SOL    HW2 4761   4.039   0.247   3.163
 1588SOL     OW 4762   0.553   2.216   0.744
 1588SOL    HW1 4763   0.633   2.169   0.724
 1588SOL    HW2 4764   0.577   2.274   0.817
 1589SOL     OW 4765   2.124   4.823   3.434
 1589SOL    HW1 4766   2.206   4.786   3.467
 1589SOL    HW2 4767   2.055   4.774   3.479
 1590SOL     OW 4768   2.823   3.255   0.740
 1590SOL    HW1 4769   2.891   3.314   0.709
 1590SOL    HW2 4770   2.856   3.221   0.823
 1591SOL     OW 4771   0.831   2.996   0.063
 1591SOL    HW1 4772   0.747   2.959   0.088
 1591SOL    HW2 4773   0.837   3.079   0.110
 1592SOL     OW 4774   2.369   2.891   1.829
 1592SOL    HW1 4775   2.301   2.947   1.792
 1592SOL    HW2 4776   2.361   2.904   1.924
 1593SOL     OW 4777   1.720   1.114   2.152
 1593SOL    HW1 4778   1.672   1.191   2.123
 1593SOL    HW2 4779   1.662   1.040   2.130
 1594SOL     OW 4780   3.939   0.575   1.551
 1594SOL    HW1 4781   4.025   0.536   1.537
 1594SOL    HW2 4782   3.879   0.501   1.555
 1595SOL     OW 4783   0.588   3.502   2.470
 1595SOL    HW1 4784   0.599   3.434   2.535
 1595SOL    HW2 4785   0.607   3.459   2.386
 1596SOL     OW 4786   4.859   3.255   5.174
 1596SOL    HW1 4787   4.801   3.189   5.135
 1596SOL    HW2 4788   4.937   3.205   5.200
 1597SOL     OW 4789   2.636   2.188   4.382
 1597SOL    HW1 4790   2.597   2.205   4.297
 1597SOL    HW2 4791   2.574   2.225   4.445
 1598SOL     OW 4792   4.949   4.545   0.396
 1598SOL    HW1 4793   5.007   4.598   0.341
 1598SOL    HW2 4794   4.887   4.505   0.335
 1599SOL     OW 4795   2.723   4.355   2.026
 1599SOL    HW1 4796   2.730   4.335   1.933
 1599SOL    HW2 4797   2.759   4.443   2.034
 1600SOL     OW 4798   2.613   4.109   0.684
 1600SOL    HW1 4799   2.701   4.120   0.647
 1600SOL    HW2 4800   2.624   4.044   0.753
 1601SOL     OW 4801   3.589   4.459   4.560
 1601SOL    HW1 4802   3.540   4.424   4.634
 1601SOL    HW2 4803   3.524   4.507   4.508
 1602SOL     OW 4804   1.460   3.272   2.225
 1602SOL    HW1 4805   1.434   3.362   2.204
 1602SOL    HW2 4806   1.461   3.269   2.321
 1603SOL     OW 4807   5.022   3.591   4.439
 1603SOL    HW1 4808   4.972   3.656   4.488
 1603SOL    HW2 4809   4.967   3.513   4.440
 1604SOL     OW 4810   4.351   3.751   0.042
 1604SOL    HW1 4811   4.360   3.720  -0.048
 1604SOL    HW2 4812   4.429   3.718   0.087
 1605SOL     OW 4813   2.949   4.786   2.825
 1605SOL    HW1 4814   3.010   4.798   2.898
 1605SOL    HW2 4815   2.914   4.698   2.838
 1606SOL     OW 4816   1.213   1.513   2.183
 1606SOL    HW1 4817   1.186   1.462   2.259
 1606SOL    HW2 4818   1.144   1.578   2.172
 1607SOL     OW 4819   1.268   3.304   3.501
 1607SOL    HW1 4820   1.176   3.288   3.478
 1607SOL    HW2 4821   1.280   3.397   3.482
 1608SOL     OW 4822   2.049   0.298   0.707
 1608SOL    HW1 4823   2.132   0.284   0.753
 1608SOL    HW2 4824   1.997   0.221   0.729
 1609SOL     OW 4825   4.124   1.101   1.433
 1609SOL    HW1 4826   4.131   1.124   1.526
 1609SOL    HW2 4827   4.044   1.049   1.428
 1610SOL     OW 4828   4.060   4.634   2.381
 1610SOL    HW1 4829   4.028   4.717   2.345
 1610SOL    HW2 4830   3.982   4.579   2.388
 1611SOL     OW 4831   2.854   1.646   4.439
 1611SOL    HW1 4832   2.815   1.720   4.393
 1611SOL    HW2 4833   2.781   1.604   4.484
 1612SOL     OW 4834   0.684   1.637   4.278
 1612SOL    HW1 4835   0.621   1.673   4.341
 1612SOL    HW2 4836   0.716   1.713   4.229
 1613SOL     OW 4837   2.878   2.535   4.963
 1613SOL    HW1 4838   2.955   2.577   4.925
 1613SOL    HW2 4839   2.816   2.528   4.890
 1614SOL     OW 4840   1.811   1.140   2.999
 1614SOL    HW1 4841   1.726   1.169   3.031
 1614SOL    HW2 4842   1.852   1.219   2.963
 1615SOL     OW 4843   2.877   1.032   0.781
 1615SOL    HW1 4844   2.797   1.083   0.775
 1615SOL    HW2 4845   2.874   0.972   0.706
 1616SOL     OW 4846   0.370   0.645   3.161
 1616SOL    HW1 4847   0.461   0.621   3.147
 1616SOL    HW2 4848   0.372   0.710   3.231
 1617SOL     OW 4849   3.825   0.839   3.374
 1617SOL    HW1 4850   3.761   0.806   3.311
 1617SOL    HW2 4851   3.796   0.928   3.393
 1618SOL     OW 4852   1.041   1.746   0.679
 1618SOL    HW1 4853   0.969   1.694   0.714
 1618SOL    HW2 4854   1.118   1.718   0.729
 1619SOL     OW 4855   1.973   1.538   1.504
 1619SOL    HW1 4856   1.888   1.577   1.527
 1619SOL    HW2 4857   2.038   1.599   1.539
 1620SOL     OW 4858   4.446  -0.006   4.226
 1620SOL    HW1 4859   4.522  -0.039   4.178
 1620SOL    HW2 4860   4.407   0.060   4.168
 1621SOL     OW 4861   2.924   3.800   4.653
 1621SOL    HW1 4862   2.955   3.854   4.725
 1621SOL    HW2 4863   2.888   3.722   4.694
 1622SOL     OW 4864   1.572   1.693   0.356
 1622SOL    HW1 4865   1.503   1.628   0.345
 1622SOL    HW2 4866   1.623   1.662   0.431
 1623SOL     OW 4867   3.454   0.894   0.253
 1623SOL    HW1 4868   3.549   0.884   0.247
 1623SOL    HW2 4869   3.438   0.987   0.236
 1624SOL     OW 4870   0.685   3.725   0.831
 1624SOL    HW1 4871   0.664   3.678   0.750
 1624SOL    HW2 4872   0.635   3.680   0.899
 1625SOL     OW 4873   0.452   1.206   1.585
 1625SOL    HW1 4874   0.362   1.181   1.607
 1625SOL    HW2 4875   0.495   1.217   1.669
 1626SOL     OW 4876   3.905   0.449   3.398
 1626SOL    HW1 4877   3.836   0.492   3.449
 1626SOL    HW2 4878   3.902   0.491   3.313
 1627SOL     OW 4879   2.658   3.256   2.996
 1627SOL    HW1 4880   2.619   3.307   2.925
 1627SOL    HW2 4881   2.679   3.321   3.063
 1628SOL     OW 4882   2.549   0.442   4.333
 1628SOL    HW1 4883   2.643   0.427   4.326
 1628SOL    HW2 4884   2.513   0.408   4.251
 1629SOL     OW 4885   3.198   0.950   4.199
 1629SOL    HW1 4886   3.148   0.874   4.229
 1629SOL    HW2 4887   3.168   0.965   4.109
 1630SOL     OW 4888   3.489   3.331   0.862
 1630SOL    HW1 4889   3.497   3.277   0.941
 1630SOL    HW2 4890   3.470   3.269   0.792
 1631SOL     OW 4891   2.871   1.775   3.923
 1631SOL    HW1 4892   2.963   1.759   3.941
 1631SOL    HW2 4893   2.833   1.688   3.910
 1632SOL     OW 4894   3.046   4.525   4.855
 1632SOL    HW1 4895   3.097   4.445   4.870
 1632SOL    HW2 4896   2.971   4.498   4.803
 1633SOL     OW 4897   2.285   3.503   1.025
 1633SOL    HW1 4898   2.279   3.462   1.111
 1633SOL    HW2 4899   2.216   3.462   0.973
 1634SOL     OW 4900   1.280   4.624   0.363
 1634SOL    HW1 4901   1.370   4.608   0.391
 1634SOL    HW2 4902   1.243   4.536   0.350
 1635SOL     OW 4903   0.667   3.513   4.534
 1635SOL    HW1 4904   0.758   3.491   4.550
 1635SOL    HW2 4905   0.660   3.518   4.438
 1636SOL     OW 4906   4.222   0.173   1.632
 1636SOL    HW1 4907   4.260   0.099   1.679
 1636SOL    HW2 4908   4.229   0.149   1.540
 1637SOL     OW 4909   0.029   3.917   2.417
 1637SOL    HW1 4910   0.058   3.963   2.496
 1637SOL    HW2 4911   0.107   3.914   2.362
 1638SOL     OW 4912   4.687   1.891   0.526
 1638SOL    HW1 4913   4.737   1.956   0.477
 1638SOL    HW2 4914   4.734   1.882   0.609
 1639SOL     OW 4915   2.047   1.250   1.519
 1639SOL    HW1 4916   2.142   1.239   1.520
 1639SOL    HW2 4917   2.033   1.344   1.508
 1640SOL     OW 4918   2.634   2.368   2.469
 1640SOL    HW1 4919   2.564   2.434   2.470
 1640SOL    HW2 4920   2.590   2.287   2.441
 1641SOL     OW 4921   4.843   2.644   2.520
 1641SOL    HW1 4922   4.822   2.729   2.483
 1641SOL    HW2 4923   4.799   2.641   2.604
 1642SOL     OW 4924   4.184   1.938   2.268
 1642SOL    HW1 4925   4.130   1.860   2.257
 1642SOL    HW2 4926   4.144   1.984   2.342
 1643SOL     OW 4927   1.441   0.984   1.754
 1643SOL    HW1 4928   1.350   0.993   1.725
 1643SOL    HW2 4929   1.436   0.981   1.849
 1644SOL     OW 4930   1.446   0.421   2.823
 1644SOL    HW1 4931   1.540   0.409   2.842
 1644SOL    HW2 4932   1.444   0.450   2.732
 1645SOL     OW 4933   3.387   2.682   3.223
 1645SOL    HW1 4934   3.431   2.597   3.234
 1645SOL    HW2 4935   3.299   2.659   3.195
 1646SOL     OW 4936   3.625   1.570   3.351
 1646SOL    HW1 4937   3.704   1.547   3.400
 1646SOL    HW2 4938   3.583   1.638   3.404
 1647SOL     OW 4939   2.719   1.877   3.450
 1647SOL    HW1 4940   2.759   1.826   3.521
 1647SOL    HW2 4941   2.627   1.885   3.476
 1648SOL     OW 4942   4.630   1.050   2.224
 1648SOL    HW1 4943   4.638   1.092   2.139
 1648SOL    HW2 4944   4.596   0.962   2.204
 1649SOL     OW 4945   2.077   4.508   1.344
 1649SOL    HW1 4946   2.099   4.590   1.387
 1649SOL    HW2 4947   1.998   4.478   1.389
 1650SOL     OW 4948   1.151   4.625   3.512
 1650SOL    HW1 4949   1.170   4.651   3.602
 1650SOL    HW2 4950   1.057   4.605   3.513
 1651SOL     OW 4951   4.264   5.098   2.886
 1651SOL    HW1 4952   4.195   5.101   2.953
 1651SOL    HW2 4953   4.234   5.160   2.820
 1652SOL     OW 4954   3.014   4.986   0.582
 1652SOL    HW1 4955   2.979   5.013   0.497
 1652SOL    HW2 4956   3.052   5.065   0.619
 1653SOL     OW 4957   1.329   3.244   3.180
 1653SOL    HW1 4958   1.300   3.179   3.117
 1653SOL    HW2 4959   1.248   3.280   3.216
 1654SOL     OW 4960   4.388   1.631   1.596
 1654SOL    HW1 4961   4.443   1.607   1.521
 1654SOL    HW2 4962   4.439   1.606   1.673
 1655SOL     OW 4963   1.139   4.819   2.717
 1655SOL    HW1 4964   1.063   4.826   2.659
 1655SOL    HW2 4965   1.201   4.763   2.670
 1656SOL     OW 4966   4.288   4.987   4.342
 1656SOL    HW1 4967   4.324   5.074   4.328
 1656SOL    HW2 4968   4.364   4.933   4.364
 1657SOL     OW 4969   0.364   2.552   3.906
 1657SOL    HW1 4970   0.281   2.518   3.871
 1657SOL    HW2 4971   0.373   2.509   3.991
 1658SOL     OW 4972   0.413   4.606   0.177
 1658SOL    HW1 4973   0.351   4.565   0.117
 1658SOL    HW2 4974   0.496   4.608   0.129
 1659SOL     OW 4975   1.779   4.281   4.997
 1659SOL    HW1 4976   1.759   4.315   4.910
 1659SOL    HW2 4977   1.740   4.345   5.057
 1660SOL     OW 4978   0.365   5.047   0.355
 1660SOL    HW1 4979   0.351   4.980   0.288
 1660SOL    HW2 4980   0.277   5.062   0.391
 1661SOL     OW 4981   2.936   0.554   3.981
 1661SOL    HW1 4982   2.956   0.583   3.892
 1661SOL    HW2 4983   2.854   0.598   4.002
 1662SOL     OW 4984   1.484   4.885   1.764
 1662SOL    HW1 4985   1.478   4.890   1.668
 1662SOL    HW2 4986   1.524   4.968   1.790
 1663SOL     OW 4987   2.448   0.230   4.154
 1663SOL    HW1 4988   2.384   0.301   4.139
 1663SOL    HW2 4989   2.395   0.150   4.155
 1664SOL     OW 4990   4.197   0.380   2.310
 1664SOL    HW1 4991   4.274   0.422   2.349
 1664SOL    HW2 4992   4.219   0.372   2.217
 1665SOL     OW 4993   2.309   1.189   0.516
 1665SOL    HW1 4994   2.287   1.272   0.473
 1665SOL    HW2 4995   2.349   1.136   0.447
 1666SOL     OW 4996   1.346   1.563   3.814
 1666SOL    HW1 4997   1.436   1.537   3.796
 1666SOL    HW2 4998   1.349   1.658   3.827
 1667SOL     OW 4999   4.856   0.216   2.885
 1667SOL    HW1 5000   4.944   0.253   2.895
 1667SOL    HW2 5001   4.797   0.287   2.912
 1668SOL     OW 5002   3.065   3.459   4.718
 1668SOL    HW1 5003   3.076   3.372   4.680
 1668SOL    HW2 5004   2.972   3.477   4.709
 1669SOL     OW 5005   5.023   1.237   3.419
 1669SOL    HW1 5006   5.023   1.142   3.413
 1669SOL    HW2 5007   4.930   1.262   3.411
 1670SOL     OW 5008   0.127   2.181   1.467
 1670SOL    HW1 5009   0.032   2.175   1.478
 1670SOL    HW2 5010   0.147   2.273   1.485
 1671SOL     OW 5011   5.002   1.510   1.001
 1671SOL    HW1 5012   4.965   1.528   1.088
 1671SOL    HW2 5013   4.958   1.573   0.943
 1672SOL     OW 5014   0.396   3.304   1.648
 1672SOL    HW1 5015   0.308   3.340   1.661
 1672SOL    HW2 5016   0.384   3.231   1.588
 1673SOL     OW 5017   2.590   0.977   4.911
 1673SOL    HW1 5018   2.541   0.962   4.992
 1673SOL    HW2 5019   2.655   0.907   4.909
 1674SOL     OW 5020   3.997   0.705   1.173
 1674SOL    HW1 5021   3.904   0.695   1.193
 1674SOL    HW2 5022   4.004   0.794   1.137
 1675SOL     OW 5023   1.738   4.377   3.588
 1675SOL    HW1 5024   1.695   4.408   3.668
 1675SOL    HW2 5025   1.735   4.452   3.528
 1676SOL     OW 5026   3.974   1.102   3.942
 1676SOL    HW1 5027   3.932   1.027   3.983
 1676SOL    HW2 5028   3.979   1.169   4.011
 1677SOL     OW 5029   2.313   5.061   2.491
 1677SOL    HW1 5030   2.300   5.121   2.418
 1677SOL    HW2 5031   2.332   5.118   2.566
 1678SOL     OW 5032   0.955   3.493   3.992
 1678SOL    HW1 5033   1.019   3.457   3.930
 1678SOL    HW2 5034   0.965   3.438   4.070
 1679SOL     OW 5035   0.672   2.896   3.338
 1679SOL    HW1 5036   0.587   2.904   3.295
 1679SOL    HW2 5037   0.668   2.811   3.382
 1680SOL     OW 5038   3.879   1.489   0.459
 1680SOL    HW1 5039   3.964   1.449   0.480
 1680SOL    HW2 5040   3.845   1.519   0.543
 1681SOL     OW 5041   3.899   1.557   4.991
 1681SOL    HW1 5042   3.934   1.623   4.932
 1681SOL    HW2 5043   3.860   1.491   4.934
 1682SOL     OW 5044   5.055   3.484   2.371
 1682SOL    HW1 5045   5.044   3.474   2.465
 1682SOL    HW2 5046   5.148   3.466   2.355
 1683SOL     OW 5047   0.451   0.843   2.784
 1683SOL    HW1 5048   0.422   0.858   2.874
 1683SOL    HW2 5049   0.542   0.872   2.783
 1684SOL     OW 5050   0.599   0.252   2.510
 1684SOL    HW1 5051   0.559   0.338   2.524
 1684SOL    HW2 5052   0.692   0.266   2.527
 1685SOL     OW 5053   5.069   4.285   0.608
 1685SOL    HW1 5054   5.010   4.294   0.533
 1685SOL    HW2 5055   5.140   4.346   0.591
 1686SOL     OW 5056   0.041   1.413   2.043
 1686SOL    HW1 5057  -0.002   1.418   1.957
 1686SOL    HW2 5058  -0.010   1.349   2.092
 1687SOL     OW 5059   0.119   3.513   4.478
 1687SOL    HW1 5060   0.031   3.547   4.496
 1687SOL    HW2 5061   0.118   3.495   4.383
 1688SOL     OW 5062   0.874   0.241   0.357
 1688SOL    HW1 5063   0.947   0.250   0.417
 1688SOL    HW2 5064   0.860   0.329   0.322
 1689SOL     OW 5065   5.155   0.196   0.220
 1689SOL    HW1 5066   5.137   0.202   0.126
 1689SOL    HW2 5067   5.092   0.132   0.253
 1690SOL     OW 5068   5.085   2.846   1.021
 1690SOL    HW1 5069   5.114   2.762   0.986
 1690SOL    HW2 5070   5.043   2.889   0.947
 1691SOL     OW 5071   2.137   4.132   1.568
 1691SOL    HW1 5072   2.115   4.148   1.660
 1691SOL    HW2 5073   2.156   4.039   1.563
 1692SOL     OW 5074   1.622   1.660   0.065
 1692SOL    HW1 5075   1.631   1.723   0.136
 1692SOL    HW2 5076   1.528   1.657   0.047
 1693SOL     OW 5077   1.034   4.026   1.888
 1693SOL    HW1 5078   1.044   3.932   1.902
 1693SOL    HW2 5079   0.979   4.055   1.962
 1694SOL     OW 5080   5.185   0.473   1.272
 1694SOL    HW1 5081   5.152   0.384   1.262
 1694SOL    HW2 5082   5.115   0.528   1.235
 1695SOL     OW 5083   3.830   1.338   0.236
 1695SOL    HW1 5084   3.900   1.387   0.192
 1695SOL    HW2 5085   3.805   1.393   0.310
 1696SOL     OW 5086   3.516   2.033   2.501
 1696SOL    HW1 5087   3.591   2.014   2.446
 1696SOL    HW2 5088   3.510   1.958   2.560
 1697SOL     OW 5089   3.131   2.976   0.104
 1697SOL    HW1 5090   3.208   3.030   0.124
 1697SOL    HW2 5091   3.160   2.917   0.035
 1698SOL     OW 5092   1.275   2.568   3.719
 1698SOL    HW1 5093   1.316   2.643   3.676
 1698SOL    HW2 5094   1.215   2.607   3.783
 1699SOL     OW 5095   1.843   4.754   0.304
 1699SOL    HW1 5096   1.883   4.696   0.239
 1699SOL    HW2 5097   1.804   4.824   0.251
 1700SOL     OW 5098   3.613   3.395   3.083
 1700SOL    HW1 5099   3.575   3.307   3.070
 1700SOL    HW2 5100   3.566   3.429   3.160
 1701SOL     OW 5101   1.020   1.587   5.076
 1701SOL    HW1 5102   1.030   1.526   5.003
 1701SOL    HW2 5103   1.091   1.565   5.136
 1702SOL     OW 5104   0.308   1.472   4.281
 1702SOL    HW1 5105   0.278   1.390   4.242
 1702SOL    HW2 5106   0.298   1.459   4.375
 1703SOL     OW 5107   5.155   2.527   4.533
 1703SOL    HW1 5108   5.214   2.514   4.607
 1703SOL    HW2 5109   5.203   2.492   4.458
 1704SOL     OW 5110   4.416   2.735   4.278
 1704SOL    HW1 5111   4.493   2.704   4.326
 1704SOL    HW2 5112   4.344   2.683   4.313
 1705SOL     OW 5113   4.054   4.717   1.932
 1705SOL    HW1 5114   4.087   4.660   1.862
 1705SOL    HW2 5115   4.049   4.804   1.892
 1706SOL     OW 5116   2.916   0.788   0.248
 1706SOL    HW1 5117   3.006   0.789   0.280
 1706SOL    HW2 5118   2.894   0.695   0.241
 1707SOL     OW 5119   4.785   0.206   2.331
 1707SOL    HW1 5120   4.810   0.113   2.322
 1707SOL    HW2 5121   4.855   0.244   2.383
 1708SOL     OW 5122   4.254   0.523   2.006
 1708SOL    HW1 5123   4.233   0.575   1.929
 1708SOL    HW2 5124   4.350   0.520   2.008
 1709SOL     OW 5125   3.976   5.107   1.577
 1709SOL    HW1 5126   4.043   5.098   1.509
 1709SOL    HW2 5127   3.944   5.197   1.568
 1710SOL     OW 5128   1.604   4.454   5.107
 1710SOL    HW1 5129   1.571   4.448   5.197
 1710SOL    HW2 5130   1.607   4.548   5.089
 1711SOL     OW 5131   2.062   4.964   4.973
 1711SOL    HW1 5132   2.022   4.878   4.956
 1711SOL    HW2 5133   2.135   4.969   4.911
 1712SOL     OW 5134   0.962   4.444   1.351
 1712SOL    HW1 5135   0.994   4.509   1.414
 1712SOL    HW2 5136   0.870   4.467   1.338
 1713SOL     OW 5137   1.842   2.781   2.857
 1713SOL    HW1 5138   1.767   2.733   2.892
 1713SOL    HW2 5139   1.804   2.849   2.802
 1714SOL     OW 5140  -0.005   4.319   2.706
 1714SOL    HW1 5141   0.077   4.366   2.720
 1714SOL    HW2 5142  -0.072   4.373   2.748
 1715SOL     OW 5143   2.240   0.909   1.994
 1715SOL    HW1 5144   2.158   0.863   1.974
 1715SOL    HW2 5145   2.287   0.850   2.052
 1716SOL     OW 5146   3.144   1.360   4.523
 1716SOL    HW1 5147   3.145   1.387   4.615
 1716SOL    HW2 5148   3.236   1.342   4.502
 1717SOL     OW 5149   2.520   0.871   1.446
 1717SOL    HW1 5150   2.593   0.887   1.386
 1717SOL    HW2 5151   2.445   0.856   1.389
 1718SOL     OW 5152   0.775   3.169   1.387
 1718SOL    HW1 5153   0.704   3.178   1.323
 1718SOL    HW2 5154   0.731   3.174   1.472
 1719SOL     OW 5155   1.424   0.590   4.968
 1719SOL    HW1 5156   1.464   0.674   4.945
 1719SOL    HW2 5157   1.454   0.572   5.057
 1720SOL     OW 5158   0.949   1.090   0.991
 1720SOL    HW1 5159   1.002   1.051   1.062
 1720SOL    HW2 5160   0.995   1.065   0.911
 1721SOL     OW 5161   4.777   1.410   2.625
 1721SOL    HW1 5162   4.736   1.389   2.708
 1721SOL    HW2 5163   4.851   1.350   2.619
 1722SOL     OW 5164   2.594   1.516   1.759
 1722SOL    HW1 5165   2.521   1.512   1.821
 1722SOL    HW2 5166   2.637   1.600   1.778
 1723SOL     OW 5167   1.557   3.722   3.640
 1723SOL    HW1 5168   1.612   3.654   3.599
 1723SOL    HW2 5169   1.545   3.692   3.730
 1724SOL     OW 5170   0.106   1.945   2.083
 1724SOL    HW1 5171   0.042   1.905   2.023
 1724SOL    HW2 5172   0.060   1.950   2.167
 1725SOL     OW 5173   0.103   0.143   1.351
 1725SOL    HW1 5174   0.186   0.116   1.311
 1725SOL    HW2 5175   0.056   0.061   1.366
 1726SOL     OW 5176   2.098   4.306   1.842
 1726SOL    HW1 5177   2.042   4.367   1.891
 1726SOL    HW2 5178   2.173   4.291   1.900
 1727SOL     OW 5179   4.867   0.499   4.807
 1727SOL    HW1 5180   4.804   0.450   4.755
 1727SOL    HW2 5181   4.814   0.563   4.855
 1728SOL     OW 5182   3.440   1.196   3.432
 1728SOL    HW1 5183   3.532   1.174   3.447
 1728SOL    HW2 5184   3.429   1.191   3.337
 1729SOL     OW 5185   2.565   2.660   0.957
 1729SOL    HW1 5186   2.497   2.696   1.015
 1729SOL    HW2 5187   2.646   2.673   1.006
 1730SOL     OW 5188   1.978   2.805   3.151
 1730SOL    HW1 5189   2.028   2.724   3.142
 1730SOL    HW2 5190   1.949   2.806   3.243
 1731SOL     OW 5191   2.444   2.103   4.742
 1731SOL    HW1 5192   2.478   2.031   4.689
 1731SOL    HW2 5193   2.349   2.088   4.745
 1732SOL     OW 5194   4.210   5.004   5.060
 1732SOL    HW1 5195   4.139   5.064   5.083
 1732SOL    HW2 5196   4.203   4.993   4.965
 1733SOL     OW 5197   4.016   4.027   4.116
 1733SOL    HW1 5198   4.026   3.933   4.131
 1733SOL    HW2 5199   4.104   4.059   4.099
 1734SOL     OW 5200   0.279   0.742   4.990
 1734SOL    HW1 5201   0.229   0.660   4.994
 1734SOL    HW2 5202   0.212   0.810   4.980
 1735SOL     OW 5203   2.449   0.781   4.569
 1735SOL    HW1 5204   2.370   0.798   4.518
 1735SOL    HW2 5205   2.512   0.748   4.505
 1736SOL     OW 5206   1.104   3.835   4.680
 1736SOL    HW1 5207   1.169   3.803   4.616
 1736SOL    HW2 5208   1.157   3.880   4.747
 1737SOL     OW 5209   3.687   1.970   3.669
 1737SOL    HW1 5210   3.678   1.998   3.760
 1737SOL    HW2 5211   3.782   1.969   3.653
 1738SOL     OW 5212   3.439   1.050   1.290
 1738SOL    HW1 5213   3.407   1.131   1.250
 1738SOL    HW2 5214   3.501   1.014   1.227
 1739SOL     OW 5215   0.880   1.931   3.015
 1739SOL    HW1 5216   0.859   1.837   3.018
 1739SOL    HW2 5217   0.918   1.950   3.101
 1740SOL     OW 5218   1.707   3.617   5.055
 1740SOL    HW1 5219   1.722   3.694   5.000
 1740SOL    HW2 5220   1.617   3.590   5.034
 1741SOL     OW 5221   2.130   3.865   1.602
 1741SOL    HW1 5222   2.036   3.872   1.616
 1741SOL    HW2 5223   2.141   3.781   1.556
 1742SOL     OW 5224   4.846   2.036   2.021
 1742SOL    HW1 5225   4.783   2.104   1.997
 1742SOL    HW2 5226   4.803   1.988   2.092
 1743SOL     OW 5227   0.680   2.236   1.159
 1743SOL    HW1 5228   0.762   2.240   1.208
 1743SOL    HW2 5229   0.699   2.283   1.078
 1744SOL     OW 5230   2.631   1.326   0.350
 1744SOL    HW1 5231   2.668   1.311   0.437
 1744SOL    HW2 5232   2.577   1.248   0.334
 1745SOL     OW 5233   2.645   3.558   0.222
 1745SOL    HW1 5234   2.597   3.623   0.272
 1745SOL    HW2 5235   2.583   3.527   0.155
 1746SOL     OW 5236   0.224   4.429   3.798
 1746SOL    HW1 5237   0.281   4.477   3.858
 1746SOL    HW2 5238   0.246   4.464   3.711
 1747SOL     OW 5239   3.948   3.819   1.101
 1747SOL    HW1 5240   3.920   3.910   1.092
 1747SOL    HW2 5241   3.957   3.788   1.011
 1748SOL     OW 5242   4.841   0.299   4.611
 1748SOL    HW1 5243   4.910   0.314   4.546
 1748SOL    HW2 5244   4.822   0.205   4.604
 1749SOL     OW 5245   2.765   4.059   4.139
 1749SOL    HW1 5246   2.827   4.111   4.089
 1749SOL    HW2 5247   2.783   3.969   4.114
 1750SOL     OW 5248   5.080   3.735   1.997
 1750SOL    HW1 5249   4.996   3.727   1.952
 1750SOL    HW2 5250   5.058   3.743   2.089
 1751SOL     OW 5251   3.797   1.238   4.377
 1751SOL    HW1 5252   3.816   1.307   4.440
 1751SOL    HW2 5253   3.842   1.265   4.297
 1752SOL     OW 5254   0.032   0.029   2.000
 1752SOL    HW1 5255  -0.036   0.044   1.934
 1752SOL    HW2 5256   0.085   0.108   1.998
 1753SOL     OW 5257   0.373   0.626   1.032
 1753SOL    HW1 5258   0.409   0.682   1.101
 1753SOL    HW2 5259   0.444   0.619   0.968
 1754SOL     OW 5260   0.664   4.090   4.251
 1754SOL    HW1 5261   0.603   4.017   4.253
 1754SOL    HW2 5262   0.640   4.140   4.173
 1755SOL     OW 5263   0.084   2.391   4.289
 1755SOL    HW1 5264   0.003   2.377   4.240
 1755SOL    HW2 5265   0.131   2.307   4.283
 1756SOL     OW 5266   3.137   2.707   2.921
 1756SOL    HW1 5267   3.159   2.663   3.003
 1756SOL    HW2 5268   3.183   2.656   2.854
 1757SOL     OW 5269   1.304   4.257   4.751
 1757SOL    HW1 5270   1.296   4.299   4.836
 1757SOL    HW2 5271   1.219   4.215   4.737
 1758SOL     OW 5272   3.156   0.583   0.595
 1758SOL    HW1 5273   3.219   0.648   0.564
 1758SOL    HW2 5274   3.075   0.632   0.608
 1759SOL     OW 5275   4.731   4.596   4.799
 1759SOL    HW1 5276   4.646   4.637   4.814
 1759SOL    HW2 5277   4.748   4.547   4.880
 1760SOL     OW 5278   3.880   5.004   4.846
 1760SOL    HW1 5279   3.933   5.074   4.807
 1760SOL    HW2 5280   3.821   4.977   4.775
 1761SOL     OW 5281   2.551   1.161   3.367
 1761SOL    HW1 5282   2.482   1.156   3.301
 1761SOL    HW2 5283   2.622   1.208   3.324
 1762SOL     OW 5284   2.271   4.138   4.714
 1762SOL    HW1 5285   2.221   4.112   4.792
 1762SOL    HW2 5286   2.255   4.067   4.651
 1763SOL     OW 5287   2.433   1.128   1.589
 1763SOL    HW1 5288   2.439   1.033   1.588
 1763SOL    HW2 5289   2.399   1.151   1.502
 1764SOL     OW 5290   0.583   3.349   1.857
 1764SOL    HW1 5291   0.515   3.304   1.809
 1764SOL    HW2 5292   0.665   3.316   1.820
 1765SOL     OW 5293   3.167   4.276   4.912
 1765SOL    HW1 5294   3.172   4.193   4.865
 1765SOL    HW2 5295   3.239   4.272   4.976
 1766SOL     OW 5296   2.904   2.045   0.306
 1766SOL    HW1 5297   2.995   2.030   0.334
 1766SOL    HW2 5298   2.856   2.057   0.388
 1767SOL     OW 5299   3.125   0.104   2.064
 1767SOL    HW1 5300   3.183   0.129   2.136
 1767SOL    HW2 5301   3.067   0.039   2.103
 1768SOL     OW 5302   3.378   2.245   5.050
 1768SOL    HW1 5303   3.346   2.331   5.023
 1768SOL    HW2 5304   3.443   2.222   4.984
 1769SOL     OW 5305   4.144   1.237   4.934
 1769SOL    HW1 5306   4.215   1.297   4.958
 1769SOL    HW2 5307   4.156   1.223   4.840
 1770SOL     OW 5308   3.542   2.293   4.462
 1770SOL    HW1 5309   3.512   2.214   4.507
 1770SOL    HW2 5310   3.464   2.348   4.456
 1771SOL     OW 5311   4.744   1.377   3.642
 1771SOL    HW1 5312   4.772   1.414   3.559
 1771SOL    HW2 5313   4.659   1.337   3.623
 1772SOL     OW 5314   3.295   2.253   0.143
 1772SOL    HW1 5315   3.208   2.219   0.124
 1772SOL    HW2 5316   3.335   2.267   0.057
 1773SOL     OW 5317   4.663   4.890   0.582
 1773SOL    HW1 5318   4.693   4.821   0.642
 1773SOL    HW2 5319   4.589   4.852   0.536
 1774SOL     OW 5320   2.686   3.935   0.903
 1774SOL    HW1 5321   2.612   3.885   0.937
 1774SOL    HW2 5322   2.735   3.960   0.981
 1775SOL     OW 5323   3.814   3.088   1.940
 1775SOL    HW1 5324   3.741   3.149   1.943
 1775SOL    HW2 5325   3.785   3.013   1.992
 1776SOL     OW 5326   3.192   4.335   4.398
 1776SOL    HW1 5327   3.232   4.331   4.485
 1776SOL    HW2 5328   3.225   4.257   4.353
 1777SOL     OW 5329   5.120   4.941   0.868
 1777SOL    HW1 5330   5.025   4.949   0.874
 1777SOL    HW2 5331   5.138   4.928   0.775
 1778SOL     OW 5332   4.500   3.092   2.753
 1778SOL    HW1 5333   4.567   3.086   2.821
 1778SOL    HW2 5334   4.540   3.146   2.684
 1779SOL     OW 5335   0.364   2.778   0.441
 1779SOL    HW1 5336   0.405   2.726   0.372
 1779SOL    HW2 5337   0.288   2.819   0.400
 1780SOL     OW 5338   0.741   3.334   1.161
 1780SOL    HW1 5339   0.727   3.400   1.230
 1780SOL    HW2 5340   0.832   3.347   1.134
 1781SOL     OW 5341   2.610   4.726   2.399
 1781SOL    HW1 5342   2.683   4.723   2.338
 1781SOL    HW2 5343   2.617   4.811   2.442
 1782SOL     OW 5344   2.990   0.214   2.727
 1782SOL    HW1 5345   2.934   0.291   2.720
 1782SOL    HW2 5346   2.996   0.181   2.637
 1783SOL     OW 5347   1.009   4.236   0.243
 1783SOL    HW1 5348   0.996   4.147   0.276
 1783SOL    HW2 5349   0.928   4.257   0.197
 1784SOL     OW 5350   1.451   2.732   4.423
 1784SOL    HW1 5351   1.402   2.779   4.491
 1784SOL    HW2 5352   1.507   2.671   4.471
 1785SOL     OW 5353   3.182   1.979   0.741
 1785SOL    HW1 5354   3.109   1.978   0.803
 1785SOL    HW2 5355   3.188   2.070   0.712
 1786SOL     OW 5356   0.363   3.007   0.224
 1786SOL    HW1 5357   0.316   3.041   0.299
 1786SOL    HW2 5358   0.297   2.963   0.171
 1787SOL     OW 5359   3.094   0.487   1.065
 1787SOL    HW1 5360   3.068   0.412   1.118
 1787SOL    HW2 5361   3.116   0.450   0.980
 1788SOL     OW 5362   4.406   0.831   1.855
 1788SOL    HW1 5363   4.334   0.893   1.865
 1788SOL    HW2 5364   4.363   0.746   1.843
 1789SOL     OW 5365   5.103   2.258   0.415
 1789SOL    HW1 5366   5.125   2.345   0.383
 1789SOL    HW2 5367   5.184   2.208   0.405
 1790SOL     OW 5368   1.538   0.028   1.612
 1790SOL    HW1 5369   1.529   0.019   1.707
 1790SOL    HW2 5370   1.627   0.062   1.600
 1791SOL     OW 5371   4.929   4.931   0.487
 1791SOL    HW1 5372   4.932   4.906   0.395
 1791SOL    HW2 5373   4.836   4.946   0.504
 1792SOL     OW 5374   0.750   4.407   0.375
 1792SOL    HW1 5375   0.656   4.419   0.389
 1792SOL    HW2 5376   0.787   4.398   0.463
 1793SOL     OW 5377   3.810   2.768   5.175
 1793SOL    HW1 5378   3.741   2.745   5.114
 1793SOL    HW2 5379   3.880   2.705   5.157
 1794SOL     OW 5380   3.341   0.300   5.174
 1794SOL    HW1 5381   3.353   0.277   5.082
 1794SOL    HW2 5382   3.412   0.361   5.193
 1795SOL     OW 5383   2.013   0.695   0.901
 1795SOL    HW1 5384   1.954   0.653   0.963
 1795SOL    HW2 5385   2.091   0.639   0.902
 1796SOL     OW 5386   4.801   0.031   4.572
 1796SOL    HW1 5387   4.708   0.011   4.563
 1796SOL    HW2 5388   4.840  -0.001   4.491
 1797SOL     OW 5389   4.729   2.222  -0.009
 1797SOL    HW1 5390   4.686   2.184   0.067
 1797SOL    HW2 5391   4.660   2.271  -0.054
 1798SOL     OW 5392   3.730   1.362   1.110
 1798SOL    HW1 5393   3.809   1.355   1.165
 1798SOL    HW2 5394   3.759   1.414   1.035
 1799SOL     OW 5395   3.731   5.006   0.835
 1799SOL    HW1 5396   3.668   5.006   0.763
 1799SOL    HW2 5397   3.703   4.934   0.891
 1800SOL     OW 5398   2.328   1.357   3.881
 1800SOL    HW1 5399   2.409   1.355   3.831
 1800SOL    HW2 5400   2.295   1.446   3.871
 1801SOL     OW 5401   2.965   3.735   0.646
 1801SOL    HW1 5402   3.019   3.808   0.676
 1801SOL    HW2 5403   2.893   3.777   0.598
 1802SOL     OW 5404   2.301   4.963   3.255
 1802SOL    HW1 5405   2.315   4.944   3.162
 1802SOL    HW2 5406   2.221   4.915   3.278
 1803SOL     OW 5407   0.191   4.920   4.634
 1803SOL    HW1 5408   0.200   4.960   4.548
 1803SOL    HW2 5409   0.097   4.905   4.644
 1804SOL     OW 5410   1.150   2.067   0.543
 1804SOL    HW1 5411   1.237   2.029   0.535
 1804SOL    HW2 5412   1.126   2.092   0.454
 1805SOL     OW 5413   0.689   0.137   4.942
 1805SOL    HW1 5414   0.751   0.198   4.982
 1805SOL    HW2 5415   0.708   0.053   4.983
 1806SOL     OW 5416   1.372   1.689   5.156
 1806SOL    HW1 5417   1.319   1.609   5.151
 1806SOL    HW2 5418   1.355   1.734   5.074
 1807SOL     OW 5419   5.064   2.261   1.425
 1807SOL    HW1 5420   5.089   2.346   1.390
 1807SOL    HW2 5421   4.969   2.256   1.412
 1808SOL     OW 5422   2.773   4.509   5.041
 1808SOL    HW1 5423   2.686   4.475   5.062
 1808SOL    HW2 5424   2.792   4.472   4.955
 1809SOL     OW 5425   3.054   2.104   1.275
 1809SOL    HW1 5426   3.122   2.171   1.266
 1809SOL    HW2 5427   3.038   2.098   1.369
 1810SOL     OW 5428   4.434   3.339   0.056
 1810SOL    HW1 5429   4.405   3.249   0.074
 1810SOL    HW2 5430   4.421   3.385   0.138
 1811SOL     OW 5431   4.281   2.741   1.332
 1811SOL    HW1 5432   4.371   2.720   1.356
 1811SOL    HW2 5433   4.279   2.732   1.236
 1812SOL     OW 5434   1.738   0.123   3.600
 1812SOL    HW1 5435   1.772   0.042   3.639
 1812SOL    HW2 5436   1.643   0.111   3.600
 1813SOL     OW 5437  -0.006   0.067   2.915
 1813SOL    HW1 5438  -0.062   0.086   2.991
 1813SOL    HW2 5439   0.081   0.096   2.941
 1814SOL     OW 5440   1.951   3.289   2.424
 1814SOL    HW1 5441   1.900   3.280   2.344
 1814SOL    HW2 5442   2.042   3.295   2.395
 1815SOL     OW 5443   1.929   1.314   4.135
 1815SOL    HW1 5444   1.941   1.265   4.216
 1815SOL    HW2 5445   1.842   1.353   4.143
 1816SOL     OW 5446   0.778   0.062   3.534
 1816SOL    HW1 5447   0.771   0.145   3.582
 1816SOL    HW2 5448   0.835   0.081   3.460
 1817SOL     OW 5449   3.215   1.567   0.942
 1817SOL    HW1 5450   3.278   1.627   0.903
 1817SOL    HW2 5451   3.197   1.503   0.873
 1818SOL     OW 5452   3.902   1.277   3.364
 1818SOL    HW1 5453   3.929   1.325   3.286
 1818SOL    HW2 5454   3.939   1.189   3.353
 1819SOL     OW 5455   2.261   0.780   2.944
 1819SOL    HW1 5456   2.340   0.825   2.975
 1819SOL    HW2 5457   2.234   0.830   2.867
 1820SOL     OW 5458   4.760   3.483   0.217
 1820SOL    HW1 5459   4.673   3.514   0.193
 1820SOL    HW2 5460   4.785   3.423   0.147
 1821SOL     OW 5461   4.056   1.294   4.639
 1821SOL    HW1 5462   3.984   1.329   4.586
 1821SOL    HW2 5463   4.112   1.369   4.657
 1822SOL     OW 5464   2.216   4.853   2.301
 1822SOL    HW1 5465   2.261   4.906   2.367
 1822SOL    HW2 5466   2.253   4.766   2.311
 1823SOL     OW 5467   3.698   4.949   4.640
 1823SOL    HW1 5468   3.638   5.012   4.680
 1823SOL    HW2 5469   3.671   4.944   4.549
 1824SOL     OW 5470   1.578   2.072   4.202
 1824SOL    HW1 5471   1.611   2.017   4.131
 1824SOL    HW2 5472   1.490   2.097   4.175
 1825SOL     OW 5473   2.734   1.345   3.243
 1825SOL    HW1 5474   2.797   1.411   3.213
 1825SOL    HW2 5475   2.648   1.383   3.222
 1826SOL     OW 5476   0.798   5.127   1.484
 1826SOL    HW1 5477   0.829   5.048   1.527
 1826SOL    HW2 5478   0.702   5.124   1.493
 1827SOL     OW 5479   1.243   1.456   5.132
 1827SOL    HW1 5480   1.225   1.380   5.187
 1827SOL    HW2 5481   1.270   1.420   5.048
 1828SOL     OW 5482   2.555   3.309   4.065
 1828SOL    HW1 5483   2.647   3.304   4.090
 1828SOL    HW2 5484   2.517   3.227   4.097
 1829SOL     OW 5485   2.958   2.614   1.768
 1829SOL    HW1 5486   2.976   2.539   1.826
 1829SOL    HW2 5487   2.891   2.582   1.707
 1830SOL     OW 5488   1.955   3.524   2.572
 1830SOL    HW1 5489   2.041   3.549   2.538
 1830SOL    HW2 5490   1.925   3.454   2.514
 1831SOL     OW 5491   2.425   3.174   4.396
 1831SOL    HW1 5492   2.492   3.240   4.414
 1831SOL    HW2 5493   2.357   3.221   4.348
 1832SOL     OW 5494   4.697   3.952   3.499
 1832SOL    HW1 5495   4.642   4.025   3.527
 1832SOL    HW2 5496   4.785   3.990   3.492
 1833SOL     OW 5497   4.077   1.129   1.743
 1833SOL    HW1 5498   4.044   1.158   1.828
 1833SOL    HW2 5499   4.048   1.038   1.736
 1834SOL     OW 5500   0.248   2.474   2.506
 1834SOL    HW1 5501   0.212   2.422   2.435
 1834SOL    HW2 5502   0.187   2.462   2.579
 1835SOL     OW 5503   4.468   2.203   2.917
 1835SOL    HW1 5504   4.472   2.283   2.969
 1835SOL    HW2 5505   4.446   2.134   2.980
 1836SOL     OW 5506   3.843   0.962   4.129
 1836SOL    HW1 5507   3.807   0.888   4.081
 1836SOL    HW2 5508   3.809   0.952   4.218
 1837SOL     OW 5509   0.258   1.231   2.214
 1837SOL    HW1 5510   0.249   1.255   2.122
 1837SOL    HW2 5511   0.168   1.213   2.243
 1838SOL     OW 5512   5.038   3.737   2.270
 1838SOL    HW1 5513   5.032   3.653   2.316
 1838SOL    HW2 5514   5.092   3.792   2.327
 1839SOL     OW 5515   3.493   2.838   0.682
 1839SOL    HW1 5516   3.478   2.745   0.702
 1839SOL    HW2 5517   3.583   2.854   0.713
 1840SOL     OW 5518   4.515   1.068   1.239
 1840SOL    HW1 5519   4.590   1.117   1.204
 1840SOL    HW2 5520   4.552   1.011   1.306
 1841SOL     OW 5521   4.036   3.163   2.510
 1841SOL    HW1 5522   4.063   3.118   2.590
 1841SOL    HW2 5523   3.940   3.158   2.512
 1842SOL     OW 5524   0.750   4.981   0.144
 1842SOL    HW1 5525   0.712   4.922   0.210
 1842SOL    HW2 5526   0.768   5.062   0.192
 1843SOL     OW 5527   1.450   1.394   1.459
 1843SOL    HW1 5528   1.411   1.444   1.531
 1843SOL    HW2 5529   1.495   1.322   1.501
 1844SOL     OW 5530   0.794   0.256   1.246
 1844SOL    HW1 5531   0.862   0.298   1.192
 1844SOL    HW2 5532   0.841   0.194   1.301
 1845SOL     OW 5533   2.663   1.596   3.910
 1845SOL    HW1 5534   2.603   1.587   3.984
 1845SOL    HW2 5535   2.611   1.638   3.842
 1846SOL     OW 5536   1.736   4.389   1.774
 1846SOL    HW1 5537   1.716   4.474   1.735
 1846SOL    HW2 5538   1.784   4.410   1.854
 1847SOL     OW 5539   1.925   0.409   1.388
 1847SOL    HW1 5540   1.870   0.385   1.313
 1847SOL    HW2 5541   1.908   0.502   1.401
 1848SOL     OW 5542   4.071   2.319   4.134
 1848SOL    HW1 5543   4.074   2.415   4.134
 1848SOL    HW2 5544   4.116   2.295   4.053
 1849SOL     OW 5545   4.234   1.998   1.209
 1849SOL    HW1 5546   4.259   2.086   1.236
 1849SOL    HW2 5547   4.304   1.942   1.243
 1850SOL     OW 5548   5.134   2.647   4.806
 1850SOL    HW1 5549   5.048   2.662   4.765
 1850SOL    HW2 5550   5.187   2.721   4.778
 1851SOL     OW 5551   1.467   1.218   4.088
 1851SOL    HW1 5552   1.420   1.206   4.170
 1851SOL    HW2 5553   1.469   1.313   4.074
 1852SOL     OW 5554   2.193   4.427   1.618
 1852SOL    HW1 5555   2.210   4.365   1.548
 1852SOL    HW2 5556   2.160   4.374   1.691
 1853SOL     OW 5557   4.617   1.701   1.889
 1853SOL    HW1 5558   4.599   1.610   1.865
 1853SOL    HW2 5559   4.664   1.695   1.973
 1854SOL     OW 5560   3.157   1.708   3.994
 1854SOL    HW1 5561   3.239   1.757   3.983
 1854SOL    HW2 5562   3.185   1.617   4.001
 1855SOL     OW 5563   4.494   0.363   1.428
 1855SOL    HW1 5564   4.543   0.353   1.347
 1855SOL    HW2 5565   4.425   0.426   1.406
 1856SOL     OW 5566   4.657   0.013   0.882
 1856SOL    HW1 5567   4.569  -0.025   0.882
 1856SOL    HW2 5568   4.669   0.045   0.971
 1857SOL     OW 5569   0.457   5.058   4.380
 1857SOL    HW1 5570   0.384   4.998   4.396
 1857SOL    HW2 5571   0.424   5.143   4.409
 1858SOL     OW 5572   4.664   1.354   2.877
 1858SOL    HW1 5573   4.692   1.277   2.927
 1858SOL    HW2 5574   4.569   1.357   2.888
 1859SOL     OW 5575   3.405   4.452   0.232
 1859SOL    HW1 5576   3.498   4.476   0.223
 1859SOL    HW2 5577   3.397   4.427   0.324
 1860SOL     OW 5578   3.607   1.462   2.797
 1860SOL    HW1 5579   3.611   1.483   2.703
 1860SOL    HW2 5580   3.514   1.470   2.819
 1861SOL     OW 5581   3.839   1.519   3.509
 1861SOL    HW1 5582   3.856   1.437   3.463
 1861SOL    HW2 5583   3.926   1.550   3.535
 1862SOL     OW 5584   2.317   0.111   4.499
 1862SOL    HW1 5585   2.321   0.086   4.591
 1862SOL    HW2 5586   2.375   0.048   4.455
 1863SOL     OW 5587   2.893   2.818   2.864
 1863SOL    HW1 5588   2.896   2.913   2.874
 1863SOL    HW2 5589   2.978   2.787   2.895
 1864SOL     OW 5590   0.677   1.144   4.148
 1864SOL    HW1 5591   0.762   1.184   4.127
 1864SOL    HW2 5592   0.645   1.195   4.222
 1865SOL     OW 5593   4.198   0.341   2.890
 1865SOL    HW1 5594   4.286   0.315   2.915
 1865SOL    HW2 5595   4.163   0.266   2.841
 1866SOL     OW 5596   1.867   4.209   2.282
 1866SOL    HW1 5597   1.956   4.203   2.245
 1866SOL    HW2 5598   1.810   4.186   2.209
 1867SOL     OW 5599   0.095   2.181   1.908
 1867SOL    HW1 5600   0.020   2.221   1.952
 1867SOL    HW2 5601   0.104   2.096   1.951
 1868SOL     OW 5602   1.332   2.190   3.004
 1868SOL    HW1 5603   1.251   2.171   2.957
 1868SOL    HW2 5604   1.324   2.142   3.086
 1869SOL     OW 5605   2.590   3.958   2.366
 1869SOL    HW1 5606   2.615   4.040   2.323
 1869SOL    HW2 5607   2.642   3.891   2.321
 1870SOL     OW 5608   4.134   0.258   0.422
 1870SOL    HW1 5609   4.189   0.298   0.490
 1870SOL    HW2 5610   4.196   0.228   0.356
 1871SOL     OW 5611   1.231   5.064   1.752
 1871SOL    HW1 5612   1.189   5.102   1.828
 1871SOL    HW2 5613   1.301   5.010   1.787
 1872SOL     OW 5614   1.244   0.647   0.916
 1872SOL    HW1 5615   1.248   0.701   0.995
 1872SOL    HW2 5616   1.334   0.620   0.902
 1873SOL     OW 5617   0.598   2.002   0.997
 1873SOL    HW1 5618   0.557   2.026   1.080
 1873SOL    HW2 5619   0.690   2.023   1.008
 1874SOL     OW 5620   4.509   1.190   4.762
 1874SOL    HW1 5621   4.585   1.139   4.733
 1874SOL    HW2 5622   4.502   1.170   4.856
 1875SOL     OW 5623   2.838   1.412   0.023
 1875SOL    HW1 5624   2.776   1.484   0.013
 1875SOL    HW2 5625   2.786   1.332   0.010
 1876SOL     OW 5626   5.199   5.003   4.171
 1876SOL    HW1 5627   5.189   5.079   4.113
 1876SOL    HW2 5628   5.110   4.986   4.204
 1877SOL     OW 5629   3.251   4.036   4.467
 1877SOL    HW1 5630   3.306   4.003   4.537
 1877SOL    HW2 5631   3.207   3.958   4.432
 1878SOL     OW 5632   1.004   2.492   1.091
 1878SOL    HW1 5633   1.049   2.408   1.095
 1878SOL    HW2 5634   0.942   2.490   1.163
 1879SOL     OW 5635   1.587   1.216   3.111
 1879SOL    HW1 5636   1.621   1.284   3.169
 1879SOL    HW2 5637   1.508   1.184   3.155
 1880SOL     OW 5638   0.812   4.258   4.421
 1880SOL    HW1 5639   0.763   4.188   4.379
 1880SOL    HW2 5640   0.859   4.215   4.493
 1881SOL     OW 5641   1.482   0.998   1.337
 1881SOL    HW1 5642   1.493   1.074   1.394
 1881SOL    HW2 5643   1.451   0.928   1.395
 1882SOL     OW 5644   2.255   1.717   2.231
 1882SOL    HW1 5645   2.228   1.655   2.162
 1882SOL    HW2 5646   2.346   1.694   2.249
 1883SOL     OW 5647   0.980   0.845   2.635
 1883SOL    HW1 5648   0.949   0.761   2.669
 1883SOL    HW2 5649   1.075   0.835   2.630
 1884SOL     OW 5650   5.114   1.390   2.871
 1884SOL    HW1 5651   5.077   1.466   2.827
 1884SOL    HW2 5652   5.164   1.426   2.944
 1885SOL     OW 5653   3.251   0.195   2.843
 1885SOL    HW1 5654   3.221   0.131   2.908
 1885SOL    HW2 5655   3.182   0.196   2.777
 1886SOL     OW 5656   2.424   2.956   0.428
 1886SOL    HW1 5657   2.509   2.919   0.403
 1886SOL    HW2 5658   2.362   2.917   0.367
 1887SOL     OW 5659   1.609   0.916   0.947
 1887SOL    HW1 5660   1.526   0.963   0.957
 1887SOL    HW2 5661   1.637   0.936   0.857
 1888SOL     OW 5662   2.361   4.688   2.665
 1888SOL    HW1 5663   2.322   4.704   2.580
 1888SOL    HW2 5664   2.329   4.759   2.721
 1889SOL     OW 5665   4.704   1.203   1.734
 1889SOL    HW1 5666   4.748   1.257   1.668
 1889SOL    HW2 5667   4.747   1.118   1.728
 1890SOL     OW 5668   1.864   4.234   3.899
 1890SOL    HW1 5669   1.872   4.296   3.826
 1890SOL    HW2 5670   1.812   4.280   3.964
 1891SOL     OW 5671   5.024   3.823   4.832
 1891SOL    HW1 5672   5.014   3.845   4.740
 1891SOL    HW2 5673   5.112   3.786   4.839
 1892SOL     OW 5674   0.580   2.260   1.772
 1892SOL    HW1 5675   0.572   2.176   1.816
 1892SOL    HW2 5676   0.495   2.274   1.731
 1893SOL     OW 5677   2.052   4.334   3.488
 1893SOL    HW1 5678   1.961   4.356   3.464
 1893SOL    HW2 5679   2.048   4.241   3.512
 1894SOL     OW 5680   0.550   3.021   2.166
 1894SOL    HW1 5681   0.619   3.052   2.107
 1894SOL    HW2 5682   0.569   2.928   2.178
 1895SOL     OW 5683   4.887   4.559   1.405
 1895SOL    HW1 5684   4.892   4.599   1.492
 1895SOL    HW2 5685   4.896   4.465   1.421
 1896SOL     OW 5686   1.884   0.193   4.990
 1896SOL    HW1 5687   1.876   0.268   5.049
 1896SOL    HW2 5688   1.854   0.119   5.043
 1897SOL     OW 5689   2.181   2.278   2.991
 1897SOL    HW1 5690   2.111   2.228   2.950
 1897SOL    HW2 5691   2.183   2.246   3.082
 1898SOL     OW 5692   0.061   4.688   0.251
 1898SOL    HW1 5693   0.141   4.738   0.237
 1898SOL    HW2 5694  -0.010   4.747   0.226
 1899SOL     OW 5695   0.667   0.174   4.136
 1899SOL    HW1 5696   0.670   0.116   4.212
 1899SOL    HW2 5697   0.742   0.232   4.146
 1900SOL     OW 5698   0.003   0.164   5.108
 1900SOL    HW1 5699  -0.039   0.082   5.080
 1900SOL    HW2 5700   0.061   0.137   5.179
 1901SOL     OW 5701   4.766   2.382   4.225
 1901SOL    HW1 5702   4.749   2.382   4.319
 1901SOL    HW2 5703   4.695   2.330   4.187
 1902SOL     OW 5704   4.541   3.575   1.027
 1902SOL    HW1 5705   4.631   3.594   1.056
 1902SOL    HW2 5706   4.490   3.650   1.057
 1903SOL     OW 5707   4.623   2.227   0.765
 1903SOL    HW1 5708   4.549   2.282   0.791
 1903SOL    HW2 5709   4.584   2.152   0.720
 1904SOL     OW 5710   2.526   4.639   2.868
 1904SOL    HW1 5711   2.476   4.684   2.800
 1904SOL    HW2 5712   2.510   4.546   2.853
 1905SOL     OW 5713   4.635   1.872   4.246
 1905SOL    HW1 5714   4.697   1.941   4.221
 1905SOL    HW2 5715   4.589   1.907   4.322
 1906SOL     OW 5716   0.613   3.515   0.434
 1906SOL    HW1 5717   0.581   3.602   0.459
 1906SOL    HW2 5718   0.536   3.470   0.399
 1907SOL     OW 5719   3.426   3.064   0.985
 1907SOL    HW1 5720   3.365   2.991   0.981
 1907SOL    HW2 5721   3.373   3.138   1.016
 1908SOL     OW 5722   2.819   3.199   4.942
 1908SOL    HW1 5723   2.885   3.130   4.947
 1908SOL    HW2 5724   2.769   3.189   5.023
 1909SOL     OW 5725   2.856   4.954   0.288
 1909SOL    HW1 5726   2.948   4.928   0.281
 1909SOL    HW2 5727   2.809   4.872   0.300
 1910SOL     OW 5728   3.049   4.882   4.566
 1910SOL    HW1 5729   2.962   4.871   4.527
 1910SOL    HW2 5730   3.031   4.905   4.658
 1911SOL     OW 5731   3.178   0.388   4.585
 1911SOL    HW1 5732   3.233   0.456   4.547
 1911SOL    HW2 5733   3.145   0.339   4.510
 1912SOL     OW 5734   5.075   1.878   0.041
 1912SOL    HW1 5735   5.032   1.803   0.081
 1912SOL    HW2 5736   5.145   1.902   0.103
 1913SOL     OW 5737   4.987   1.880   1.305
 1913SOL    HW1 5738   5.082   1.866   1.312
 1913SOL    HW2 5739   4.967   1.948   1.369
 1914SOL     OW 5740   2.546   3.021   2.182
 1914SOL    HW1 5741   2.578   2.932   2.194
 1914SOL    HW2 5742   2.524   3.051   2.271
 1915SOL     OW 5743   1.156   2.811   5.055
 1915SOL    HW1 5744   1.127   2.872   5.124
 1915SOL    HW2 5745   1.247   2.791   5.079
 1916SOL     OW 5746   2.492   4.724   1.861
 1916SOL    HW1 5747   2.539   4.680   1.931
 1916SOL    HW2 5748   2.464   4.807   1.899
 1917SOL     OW 5749   2.043   2.686   3.804
 1917SOL    HW1 5750   2.106   2.748   3.767
 1917SOL    HW2 5751   1.964   2.737   3.819
 1918SOL     OW 5752   0.541   2.254   3.472
 1918SOL    HW1 5753   0.457   2.275   3.432
 1918SOL    HW2 5754   0.525   2.262   3.566
 1919SOL     OW 5755   2.999   4.730   4.253
 1919SOL    HW1 5756   3.088   4.752   4.279
 1919SOL    HW2 5757   2.947   4.805   4.282
 1920SOL     OW 5758   4.279   4.019   1.244
 1920SOL    HW1 5759   4.356   4.021   1.300
 1920SOL    HW2 5760   4.208   3.989   1.301
 1921SOL     OW 5761   3.810   3.058   1.098
 1921SOL    HW1 5762   3.778   3.049   1.008
 1921SOL    HW2 5763   3.744   3.014   1.152
 1922SOL     OW 5764   2.531   0.112   3.882
 1922SOL    HW1 5765   2.619   0.075   3.873
 1922SOL    HW2 5766   2.541   0.182   3.947
 1923SOL     OW 5767   1.231   3.324   0.310
 1923SOL    HW1 5768   1.309   3.323   0.365
 1923SOL    HW2 5769   1.189   3.408   0.330
 1924SOL     OW 5770   0.376   4.233   1.566
 1924SOL    HW1 5771   0.445   4.268   1.622
 1924SOL    HW2 5772   0.362   4.300   1.499
 1925SOL     OW 5773   3.660   0.699   1.511
 1925SOL    HW1 5774   3.648   0.704   1.416
 1925SOL    HW2 5775   3.750   0.669   1.523
 1926SOL     OW 5776   3.793   2.658   2.787
 1926SOL    HW1 5777   3.761   2.715   2.716
 1926SOL    HW2 5778   3.888   2.660   2.778
 1927SOL     OW 5779   3.025   0.195   0.806
 1927SOL    HW1 5780   3.083   0.270   0.818
 1927SOL    HW2 5781   3.008   0.193   0.711
 1928SOL     OW 5782   4.490   1.819   0.311
 1928SOL    HW1 5783   4.425   1.830   0.380
 1928SOL    HW2 5784   4.573   1.845   0.351
 1929SOL     OW 5785   4.961   2.576   0.665
 1929SOL    HW1 5786   4.930   2.610   0.581
 1929SOL    HW2 5787   5.001   2.491   0.644
 1930SOL     OW 5788   1.902   2.954   2.263
 1930SOL    HW1 5789   1.893   2.921   2.353
 1930SOL    HW2 5790   1.938   2.879   2.214
 1931SOL     OW 5791   3.964   0.188   1.754
 1931SOL    HW1 5792   4.054   0.168   1.726
 1931SOL    HW2 5793   3.965   0.172   1.849
 1932SOL     OW 5794   0.806   0.765   2.985
 1932SOL    HW1 5795   0.770   0.813   2.911
 1932SOL    HW2 5796   0.892   0.735   2.955
 1933SOL     OW 5797   5.131   3.281   1.964
 1933SOL    HW1 5798   5.211   3.236   1.992
 1933SOL    HW2 5799   5.154   3.374   1.967
 1934SOL     OW 5800   3.133   2.726   4.579
 1934SOL    HW1 5801   3.056   2.779   4.560
 1934SOL    HW2 5802   3.198   2.754   4.514
 1935SOL     OW 5803   2.311   3.066   3.858
 1935SOL    HW1 5804   2.230   3.114   3.877
 1935SOL    HW2 5805   2.355   3.058   3.942
 1936SOL     OW 5806   0.014   0.426   4.585
 1936SOL    HW1 5807   0.084   0.414   4.649
 1936SOL    HW2 5808  -0.042   0.494   4.623
 1937SOL     OW 5809   4.108   0.042   4.446
 1937SOL    HW1 5810   4.190   0.086   4.425
 1937SOL    HW2 5811   4.041   0.088   4.396
 1938SOL     OW 5812   2.578   1.477   0.115
 1938SOL    HW1 5813   2.600   1.391   0.152
 1938SOL    HW2 5814   2.522   1.457   0.040
 1939SOL     OW 5815   4.182   2.164   0.731
 1939SOL    HW1 5816   4.274   2.137   0.725
 1939SOL    HW2 5817   4.183   2.257   0.708
 1940SOL     OW 5818   3.969   2.652   4.802
 1940SOL    HW1 5819   3.992   2.574   4.751
 1940SOL    HW2 5820   3.887   2.627   4.845
 1941SOL     OW 5821   1.713   1.998   4.841
 1941SOL    HW1 5822   1.651   1.933   4.807
 1941SOL    HW2 5823   1.658   2.074   4.862
 1942SOL     OW 5824   0.420   4.114   1.184
 1942SOL    HW1 5825   0.410   4.147   1.095
 1942SOL    HW2 5826   0.331   4.111   1.219
 1943SOL     OW 5827   4.557   2.959   3.263
 1943SOL    HW1 5828   4.579   2.866   3.274
 1943SOL    HW2 5829   4.632   3.005   3.301
 1944SOL     OW 5830   4.259   3.873   1.665
 1944SOL    HW1 5831   4.240   3.854   1.756
 1944SOL    HW2 5832   4.250   3.968   1.657
 1945SOL     OW 5833   4.474   0.402   4.275
 1945SOL    HW1 5834   4.484   0.494   4.299
 1945SOL    HW2 5835   4.557   0.379   4.234
 1946SOL     OW 5836   1.102   2.234   0.765
 1946SOL    HW1 5837   1.108   2.152   0.716
 1946SOL    HW2 5838   1.191   2.252   0.793
 1947SOL     OW 5839   2.583   3.268   1.121
 1947SOL    HW1 5840   2.602   3.356   1.088
 1947SOL    HW2 5841   2.667   3.235   1.153
 1948SOL     OW 5842   5.049   1.111   0.197
 1948SOL    HW1 5843   5.006   1.152   0.271
 1948SOL    HW2 5844   5.082   1.184   0.145
 1949SOL     OW 5845   4.887   2.266   4.831
 1949SOL    HW1 5846   4.915   2.178   4.858
 1949SOL    HW2 5847   4.919   2.274   4.741
 1950SOL     OW 5848   2.263   3.156   1.423
 1950SOL    HW1 5849   2.294   3.122   1.339
 1950SOL    HW2 5850   2.339   3.152   1.480
 1951SOL     OW 5851   2.395   4.289   0.226
 1951SOL    HW1 5852   2.345   4.355   0.178
 1951SOL    HW2 5853   2.330   4.240   0.275
 1952SOL     OW 5854   3.705   0.653   1.229
 1952SOL    HW1 5855   3.611   0.641   1.240
 1952SOL    HW2 5856   3.729   0.592   1.159
 1953SOL     OW 5857   3.614   3.829   0.458
 1953SOL    HW1 5858   3.701   3.811   0.492
 1953SOL    HW2 5859   3.613   3.791   0.370
 1954SOL     OW 5860   0.856   0.305   2.563
 1954SOL    HW1 5861   0.887   0.305   2.654
 1954SOL    HW2 5862   0.924   0.258   2.514
 1955SOL     OW 5863   4.177   3.980   2.758
 1955SOL    HW1 5864   4.263   4.019   2.743
 1955SOL    HW2 5865   4.187   3.889   2.729
 1956SOL     OW 5866   1.855   3.459   3.252
 1956SOL    HW1 5867   1.854   3.476   3.158
 1956SOL    HW2 5868   1.763   3.450   3.276
 1957SOL     OW 5869   3.187   0.835   1.408
 1957SOL    HW1 5870   3.269   0.874   1.438
 1957SOL    HW2 5871   3.203   0.814   1.316
 1958SOL     OW 5872  -0.032   5.138   4.948
 1958SOL    HW1 5873   0.052   5.180   4.930
 1958SOL    HW2 5874  -0.009   5.052   4.983
 1959SOL     OW 5875   0.445   5.035   0.073
 1959SOL    HW1 5876   0.529   4.999   0.044
 1959SOL    HW2 5877   0.451   5.129   0.052
 1960SOL     OW 5878   2.022   3.247   3.303
 1960SOL    HW1 5879   1.988   3.334   3.281
 1960SOL    HW2 5880   1.945   3.194   3.320
 1961SOL     OW 5881   3.915   3.177   1.460
 1961SOL    HW1 5882   4.004   3.211   1.461
 1961SOL    HW2 5883   3.924   3.086   1.431
 1962SOL     OW 5884   0.456   2.799   1.042
 1962SOL    HW1 5885   0.479   2.722   1.095
 1962SOL    HW2 5886   0.514   2.868   1.074
 1963SOL     OW 5887   3.983   2.579   0.320
 1963SOL    HW1 5888   3.891   2.606   0.317
 1963SOL    HW2 5889   4.032   2.660   0.303
 1964SOL     OW 5890   3.419   0.301   4.082
 1964SOL    HW1 5891   3.509   0.285   4.055
 1964SOL    HW2 5892   3.394   0.382   4.038
 1965SOL     OW 5893   5.105   0.826   1.418
 1965SOL    HW1 5894   5.020   0.838   1.377
 1965SOL    HW2 5895   5.150   0.762   1.363
 1966SOL     OW 5896   0.298   1.307   2.617
 1966SOL    HW1 5897   0.359   1.278   2.685
 1966SOL    HW2 5898   0.349   1.305   2.536
 1967SOL     OW 5899   0.979   1.293   1.661
 1967SOL    HW1 5900   0.908   1.357   1.665
 1967SOL    HW2 5901   0.953   1.224   1.722
 1968SOL     OW 5902   3.517   0.500   3.111
 1968SOL    HW1 5903   3.523   0.434   3.181
 1968SOL    HW2 5904   3.486   0.452   3.035
 1969SOL     OW 5905   2.636   1.102   3.892
 1969SOL    HW1 5906   2.554   1.070   3.929
 1969SOL    HW2 5907   2.614   1.188   3.856
 1970SOL     OW 5908   4.463   3.063   1.539
 1970SOL    HW1 5909   4.489   2.971   1.543
 1970SOL    HW2 5910   4.531   3.105   1.486
 1971SOL     OW 5911   4.143   3.791   4.150
 1971SOL    HW1 5912   4.209   3.802   4.218
 1971SOL    HW2 5913   4.191   3.756   4.075
 1972SOL     OW 5914   4.008   2.956   1.244
 1972SOL    HW1 5915   4.071   2.901   1.198
 1972SOL    HW2 5916   3.954   2.993   1.174
 1973SOL     OW 5917   5.148   0.977   4.644
 1973SOL    HW1 5918   5.220   0.918   4.669
 1973SOL    HW2 5919   5.118   1.014   4.727
 1974SOL     OW 5920   4.782   2.754   0.023
 1974SOL    HW1 5921   4.706   2.719   0.070
 1974SOL    HW2 5922   4.847   2.684   0.027
 1975SOL     OW 5923   3.824   4.338   0.812
 1975SOL    HW1 5924   3.821   4.243   0.819
 1975SOL    HW2 5925   3.834   4.355   0.718
 1976SOL     OW 5926   2.647   3.510   1.337
 1976SOL    HW1 5927   2.571   3.461   1.367
 1976SOL    HW2 5928   2.634   3.521   1.243
 1977SOL     OW 5929   2.739   4.162   1.515
 1977SOL    HW1 5930   2.745   4.102   1.441
 1977SOL    HW2 5931   2.828   4.195   1.526
 1978SOL     OW 5932   3.817   4.070   1.082
 1978SOL    HW1 5933   3.901   4.111   1.061
 1978SOL    HW2 5934   3.776   4.054   0.997
 1979SOL     OW 5935   2.049   1.549   4.882
 1979SOL    HW1 5936   2.045   1.585   4.971
 1979SOL    HW2 5937   2.032   1.624   4.825
 1980SOL     OW 5938   4.507   1.535   0.346
 1980SOL    HW1 5939   4.600   1.557   0.343
 1980SOL    HW2 5940   4.463   1.610   0.306
 1981SOL     OW 5941   0.027   1.838   0.907
 1981SOL    HW1 5942  -0.003   1.927   0.924
 1981SOL    HW2 5943   0.112   1.849   0.863
 1982SOL     OW 5944   1.746   4.506   2.735
 1982SOL    HW1 5945   1.817   4.504   2.670
 1982SOL    HW2 5946   1.791   4.511   2.819
 1983SOL     OW 5947   0.688   1.287   3.063
 1983SOL    HW1 5948   0.734   1.321   3.140
 1983SOL    HW2 5949   0.655   1.365   3.019
 1984SOL     OW 5950   4.013   4.120   0.365
 1984SOL    HW1 5951   3.980   4.202   0.330
 1984SOL    HW2 5952   4.108   4.127   0.358
 1985SOL     OW 5953   1.363   4.321   0.708
 1985SOL    HW1 5954   1.377   4.262   0.633
 1985SOL    HW2 5955   1.284   4.286   0.751
 1986SOL     OW 5956   1.669   1.275   4.817
 1986SOL    HW1 5957   1.704   1.200   4.866
 1986SOL    HW2 5958   1.747   1.325   4.791
 1987SOL     OW 5959   4.682   5.104   5.014
 1987SOL    HW1 5960   4.687   5.145   4.927
 1987SOL    HW2 5961   4.593   5.120   5.043
 1988SOL     OW 5962   2.787   4.441   4.784
 1988SOL    HW1 5963   2.726   4.367   4.791
 1988SOL    HW2 5964   2.786   4.464   4.691
 1989SOL     OW 5965   2.974   0.146   4.185
 1989SOL    HW1 5966   2.987   0.169   4.092
 1989SOL    HW2 5967   2.882   0.164   4.202
 1990SOL     OW 5968   0.386   3.616   1.661
 1990SOL    HW1 5969   0.343   3.531   1.669
 1990SOL    HW2 5970   0.474   3.603   1.697
 1991SOL     OW 5971   4.442   4.968   3.040
 1991SOL    HW1 5972   4.375   5.008   2.985
 1991SOL    HW2 5973   4.395   4.898   3.087
 1992SOL     OW 5974   4.461   5.191   3.801
 1992SOL    HW1 5975   4.428   5.104   3.823
 1992SOL    HW2 5976   4.404   5.251   3.850
 1993SOL     OW 5977   2.743   4.849   3.455
 1993SOL    HW1 5978   2.679   4.915   3.479
 1993SOL    HW2 5979   2.816   4.862   3.516
 1994SOL     OW 5980   2.358   3.496   3.096
 1994SOL    HW1 5981   2.333   3.404   3.094
 1994SOL    HW2 5982   2.325   3.532   3.014
 1995SOL     OW 5983   3.495   1.393   1.261
 1995SOL    HW1 5984   3.558   1.366   1.194
 1995SOL    HW2 5985   3.418   1.421   1.212
 1996SOL     OW 5986   1.016   0.770   2.317
 1996SOL    HW1 5987   1.087   0.742   2.375
 1996SOL    HW2 5988   0.957   0.695   2.314
 1997SOL     OW 5989   4.433   3.552   0.721
 1997SOL    HW1 5990   4.338   3.545   0.727
 1997SOL    HW2 5991   4.459   3.598   0.801
 1998SOL     OW 5992   2.142   4.883   2.639
 1998SOL    HW1 5993   2.055   4.868   2.603
 1998SOL    HW2 5994   2.191   4.924   2.567
 1999SOL     OW 5995   2.879   3.110   2.919
 1999SOL    HW1 5996   2.811   3.166   2.957
 1999SOL    HW2 5997   2.926   3.074   2.994
 2000SOL     OW 5998   0.127   1.070   2.500
 2000SOL    HW1 5999   0.184   1.058   2.424
 2000SOL    HW2 6000   0.178   1.123   2.561
 2001SOL     OW 6001   2.043   2.725   4.571
 2001SOL    HW1 6002   2.079   2.760   4.652
 2001SOL    HW2 6003   1.988   2.796   4.537
 2002SOL     OW 6004   3.739   2.105   0.729
 2002SOL    HW1 6005   3.761   2.149   0.647
 2002SOL    HW2 6006   3.644   2.114   0.737
 2003SOL     OW 6007   3.813   4.019   1.836
 2003SOL    HW1 6008   3.827   3.932   1.872
 2003SOL    HW2 6009   3.742   4.008   1.773
 2004SOL     OW 6010   5.149   1.644   0.709
 2004SOL    HW1 6011   5.240   1.620   0.695
 2004SOL    HW2 6012   5.151   1.708   0.780
 2005SOL     OW 6013   0.253   4.382   1.116
 2005SOL    HW1 6014   0.204   4.319   1.169
 2005SOL    HW2 6015   0.187   4.445   1.086
 2006SOL     OW 6016   1.846   3.494   3.905
 2006SOL    HW1 6017   1.762   3.457   3.878
 2006SOL    HW2 6018   1.824   3.577   3.947
 2007SOL     OW 6019   2.361   3.445   0.524
 2007SOL    HW1 6020   2.442   3.473   0.568
 2007SOL    HW2 6021   2.292   3.464   0.586
 2008SOL     OW 6022   5.118   2.683   0.430
 2008SOL    HW1 6023   5.147   2.619   0.366
 2008SOL    HW2 6024   5.024   2.689   0.418
 2009SOL     OW 6025   4.253   4.147   1.667
 2009SOL    HW1 6026   4.157   4.141   1.657
 2009SOL    HW2 6027   4.266   4.183   1.754
 2010SOL     OW 6028   3.210   0.398   0.816
 2010SOL    HW1 6029   3.303   0.385   0.838
 2010SOL    HW2 6030   3.212   0.447   0.733
 2011SOL     OW 6031   1.458   1.301   1.811
 2011SOL    HW1 6032   1.433   1.391   1.787
 2011SOL    HW2 6033   1.380   1.249   1.793
 2012SOL     OW 6034   1.461   3.951   3.890
 2012SOL    HW1 6035   1.541   3.960   3.838
 2012SOL    HW2 6036   1.459   4.029   3.945
 2013SOL     OW 6037   0.772   2.455   3.060
 2013SOL    HW1 6038   0.755   2.379   3.116
 2013SOL    HW2 6039   0.830   2.511   3.113
 2014SOL     OW 6040   2.253   2.450   4.707
 2014SOL    HW1 6041   2.263   2.537   4.745
 2014SOL    HW2 6042   2.235   2.393   4.781
 2015SOL     OW 6043   3.381   1.842   3.178
 2015SOL    HW1 6044   3.392   1.869   3.087
 2015SOL    HW2 6045   3.469   1.848   3.216
 2016SOL     OW 6046   2.917   1.514   3.144
 2016SOL    HW1 6047   2.936   1.506   3.050
 2016SOL    HW2 6048   2.885   1.604   3.154
 2017SOL     OW 6049   0.743   4.413   2.778
 2017SOL    HW1 6050   0.730   4.367   2.861
 2017SOL    HW2 6051   0.835   4.400   2.757
 2018SOL     OW 6052   2.426   1.286   5.169
 2018SOL    HW1 6053   2.402   1.290   5.076
 2018SOL    HW2 6054   2.344   1.295   5.216
 2019SOL     OW 6055   4.056   2.240   4.415
 2019SOL    HW1 6056   3.964   2.231   4.441
 2019SOL    HW2 6057   4.052   2.284   4.329
 2020SOL     OW 6058   0.184   2.891   0.061
 2020SOL    HW1 6059   0.107   2.856   0.106
 2020SOL    HW2 6060   0.153   2.916  -0.026
 2021SOL     OW 6061   4.406   0.579   5.112
 2021SOL    HW1 6062   4.328   0.597   5.059
 2021SOL    HW2 6063   4.444   0.501   5.072
 2022SOL     OW 6064   2.163   2.001   1.034
 2022SOL    HW1 6065   2.217   2.080   1.043
 2022SOL    HW2 6066   2.140   1.977   1.124
 2023SOL     OW 6067   0.270   3.147   0.733
 2023SOL    HW1 6068   0.246   3.122   0.822
 2023SOL    HW2 6069   0.361   3.118   0.724
 2024SOL     OW 6070   3.411   2.536   2.948
 2024SOL    HW1 6071   3.371   2.557   2.864
 2024SOL    HW2 6072   3.339   2.500   3.000
 2025SOL     OW 6073   0.634   4.539   0.043
 2025SOL    HW1 6074   0.608   4.511  -0.044
 2025SOL    HW2 6075   0.687   4.618   0.029
 2026SOL     OW 6076   2.700   4.996   2.446
 2026SOL    HW1 6077   2.721   5.071   2.502
 2026SOL    HW2 6078   2.774   4.937   2.456
 2027SOL     OW 6079   2.629   3.780   1.907
 2027SOL    HW1 6080   2.718   3.787   1.941
 2027SOL    HW2 6081   2.615   3.686   1.895
 2028SOL     OW 6082   4.900   3.902   3.924
 2028SOL    HW1 6083   4.967   3.946   3.976
 2028SOL    HW2 6084   4.927   3.916   3.833
 2029SOL     OW 6085   0.264   1.399   4.520
 2029SOL    HW1 6086   0.171   1.379   4.531
 2029SOL    HW2 6087   0.286   1.454   4.595
 2030SOL     OW 6088   3.459   2.727   3.482
 2030SOL    HW1 6089   3.418   2.701   3.400
 2030SOL    HW2 6090   3.473   2.644   3.528
 2031SOL     OW 6091   1.392   4.238   4.092
 2031SOL    HW1 6092   1.340   4.215   4.169
 2031SOL    HW2 6093   1.461   4.295   4.127
 2032SOL     OW 6094   3.724   4.656   4.678
 2032SOL    HW1 6095   3.687   4.595   4.615
 2032SOL    HW2 6096   3.698   4.742   4.646
 2033SOL     OW 6097   3.055   2.243   3.189
 2033SOL    HW1 6098   2.962   2.261   3.185
 2033SOL    HW2 6099   3.061   2.149   3.209
 2034SOL     OW 6100   4.917   3.744   3.189
 2034SOL    HW1 6101   4.990   3.801   3.215
 2034SOL    HW2 6102   4.873   3.722   3.270
 2035SOL     OW 6103   1.998   0.556   4.614
 2035SOL    HW1 6104   2.010   0.530   4.523
 2035SOL    HW2 6105   1.964   0.478   4.658
 2036SOL     OW 6106   4.026   2.612   4.105
 2036SOL    HW1 6107   3.943   2.592   4.062
 2036SOL    HW2 6108   4.048   2.700   4.073
 2037SOL     OW 6109   1.213   3.830   3.126
 2037SOL    HW1 6110   1.211   3.890   3.052
 2037SOL    HW2 6111   1.306   3.824   3.149
 2038SOL     OW 6112   2.096   4.031   3.819
 2038SOL    HW1 6113   2.192   4.037   3.824
 2038SOL    HW2 6114   2.066   4.122   3.819
 2039SOL     OW 6115   2.571   1.613   1.161
 2039SOL    HW1 6116   2.558   1.620   1.067
 2039SOL    HW2 6117   2.654   1.658   1.177
 2040SOL     OW 6118   0.338   4.431   1.379
 2040SOL    HW1 6119   0.325   4.421   1.285
 2040SOL    HW2 6120   0.263   4.482   1.409
 2041SOL     OW 6121   4.609   1.831   4.810
 2041SOL    HW1 6122   4.700   1.849   4.786
 2041SOL    HW2 6123   4.601   1.735   4.803
 2042SOL     OW 6124   5.155   2.351   3.922
 2042SOL    HW1 6125   5.162   2.290   3.996
 2042SOL    HW2 6126   5.075   2.325   3.877
 2043SOL     OW 6127   2.187   4.680   3.187
 2043SOL    HW1 6128   2.205   4.622   3.261
 2043SOL    HW2 6129   2.091   4.685   3.182
 2044SOL     OW 6130   3.780   0.134   1.384
 2044SOL    HW1 6131   3.736   0.186   1.317
 2044SOL    HW2 6132   3.829   0.068   1.335
 2045SOL     OW 6133   3.424   3.684   5.181
 2045SOL    HW1 6134   3.429   3.677   5.085
 2045SOL    HW2 6135   3.383   3.770   5.196
 2046SOL     OW 6136   4.330   2.880   3.875
 2046SOL    HW1 6137   4.397   2.842   3.818
 2046SOL    HW2 6138   4.334   2.974   3.857
 2047SOL     OW 6139   3.839   2.459   2.103
 2047SOL    HW1 6140   3.785   2.402   2.158
 2047SOL    HW2 6141   3.917   2.407   2.085
 2048SOL     OW 6142   0.039   2.064   0.640
 2048SOL    HW1 6143   0.124   2.099   0.668
 2048SOL    HW2 6144   0.059   2.004   0.569
 2049SOL     OW 6145   3.741   4.813   0.176
 2049SOL    HW1 6146   3.664   4.835   0.124
 2049SOL    HW2 6147   3.777   4.897   0.203
 2050SOL     OW 6148   3.574   3.223   2.826
 2050SOL    HW1 6149   3.667   3.224   2.850
 2050SOL    HW2 6150   3.529   3.193   2.905
 2051SOL     OW 6151   2.753   3.803   0.505
 2051SOL    HW1 6152   2.671   3.846   0.526
 2051SOL    HW2 6153   2.735   3.754   0.424
 2052SOL     OW 6154   3.360   4.126   3.748
 2052SOL    HW1 6155   3.277   4.088   3.775
 2052SOL    HW2 6156   3.343   4.163   3.662
 2053SOL     OW 6157   4.029   3.453   3.179
 2053SOL    HW1 6158   4.031   3.415   3.092
 2053SOL    HW2 6159   4.119   3.480   3.197
 2054SOL     OW 6160   0.543   4.410   4.399
 2054SOL    HW1 6161   0.532   4.331   4.452
 2054SOL    HW2 6162   0.637   4.428   4.402
 2055SOL     OW 6163   2.625   3.433   2.785
 2055SOL    HW1 6164   2.661   3.521   2.794
 2055SOL    HW2 6165   2.562   3.440   2.713
 2056SOL     OW 6166   1.210   1.173   2.534
 2056SOL    HW1 6167   1.209   1.115   2.458
 2056SOL    HW2 6168   1.167   1.253   2.504
 2057SOL     OW 6169   4.409   3.843   1.047
 2057SOL    HW1 6170   4.361   3.915   1.088
 2057SOL    HW2 6171   4.373   3.837   0.959
 2058SOL     OW 6172   3.430   0.847   4.676
 2058SOL    HW1 6173   3.501   0.910   4.661
 2058SOL    HW2 6174   3.353   0.901   4.692
 2059SOL     OW 6175   0.647   0.778   1.778
 2059SOL    HW1 6176   0.589   0.847   1.811
 2059SOL    HW2 6177   0.592   0.727   1.718
 2060SOL     OW 6178   3.366   4.897   1.447
 2060SOL    HW1 6179   3.310   4.934   1.514
 2060SOL    HW2 6180   3.444   4.951   1.448
 2061SOL     OW 6181   4.555   0.320   0.778
 2061SOL    HW1 6182   4.651   0.329   0.783
 2061SOL    HW2 6183   4.540   0.275   0.695
 2062SOL     OW 6184   1.961   1.639   0.777
 2062SOL    HW1 6185   2.003   1.604   0.699
 2062SOL    HW2 6186   2.031   1.640   0.844
 2063SOL     OW 6187   4.978   2.576   0.019
 2063SOL    HW1 6188   4.936   2.501   0.062
 2063SOL    HW2 6189   5.001   2.544  -0.068
 2064SOL     OW 6190   0.219   0.308   2.966
 2064SOL    HW1 6191   0.283   0.345   2.904
 2064SOL    HW2 6192   0.231   0.214   2.960
 2065SOL     OW 6193   1.144   3.786   0.987
 2065SOL    HW1 6194   1.193   3.786   1.069
 2065SOL    HW2 6195   1.065   3.736   1.006
 2066SOL     OW 6196   0.451   0.886   1.428
 2066SOL    HW1 6197   0.472   0.813   1.486
 2066SOL    HW2 6198   0.402   0.948   1.483
 2067SOL     OW 6199   1.690   4.884   3.425
 2067SOL    HW1 6200   1.709   4.904   3.517
 2067SOL    HW2 6201   1.596   4.898   3.416
 2068SOL     OW 6202   0.786   1.072   1.601
 2068SOL    HW1 6203   0.694   1.084   1.576
 2068SOL    HW2 6204   0.834   1.131   1.543
 2069SOL     OW 6205   0.649   2.644   1.752
 2069SOL    HW1 6206   0.692   2.697   1.685
 2069SOL    HW2 6207   0.556   2.644   1.726
 2070SOL     OW 6208   1.069   2.160   0.309
 2070SOL    HW1 6209   1.033   2.231   0.255
 2070SOL    HW2 6210   1.135   2.119   0.253
 2071SOL     OW 6211   2.842   0.328   3.491
 2071SOL    HW1 6212   2.840   0.234   3.507
 2071SOL    HW2 6213   2.814   0.338   3.400
 2072SOL     OW 6214   1.415   4.554   3.475
 2072SOL    HW1 6215   1.338   4.609   3.490
 2072SOL    HW2 6216   1.407   4.483   3.539
 2073SOL     OW 6217   4.803   2.844   4.458
 2073SOL    HW1 6218   4.724   2.791   4.448
 2073SOL    HW2 6219   4.788   2.919   4.401
 2074SOL     OW 6220   1.309   4.229   3.224
 2074SOL    HW1 6221   1.285   4.177   3.300
 2074SOL    HW2 6222   1.388   4.275   3.250
 2075SOL     OW 6223   3.593   1.860   3.327
 2075SOL    HW1 6224   3.657   1.931   3.327
 2075SOL    HW2 6225   3.570   1.848   3.419
 2076SOL     OW 6226   4.068   3.543   1.710
 2076SOL    HW1 6227   4.056   3.536   1.616
 2076SOL    HW2 6228   4.114   3.463   1.735
 2077SOL     OW 6229   3.839   3.153   4.387
 2077SOL    HW1 6230   3.771   3.158   4.320
 2077SOL    HW2 6231   3.887   3.072   4.367
 2078SOL     OW 6232   4.086   2.350   2.059
 2078SOL    HW1 6233   4.145   2.424   2.076
 2078SOL    HW2 6234   4.143   2.281   2.025
 2079SOL     OW 6235   4.632   4.938   4.705
 2079SOL    HW1 6236   4.605   5.029   4.719
 2079SOL    HW2 6237   4.552   4.888   4.721
 2080SOL     OW 6238   1.832   2.929   3.835
 2080SOL    HW1 6239   1.747   2.932   3.878
 2080SOL    HW2 6240   1.834   3.008   3.781
 2081SOL     OW 6241   3.576   1.179   0.271
 2081SOL    HW1 6242   3.644   1.235   0.307
 2081SOL    HW2 6243   3.497   1.204   0.318
 2082SOL     OW 6244   1.005   3.610   3.226
 2082SOL    HW1 6245   0.924   3.639   3.269
 2082SOL    HW2 6246   1.063   3.686   3.231
 2083SOL     OW 6247   2.322   2.482   2.916
 2083SOL    HW1 6248   2.280   2.397   2.931
 2083SOL    HW2 6249   2.276   2.519   2.841
 2084SOL     OW 6250   4.839   1.672   0.881
 2084SOL    HW1 6251   4.872   1.751   0.922
 2084SOL    HW2 6252   4.850   1.686   0.787
 2085SOL     OW 6253   2.884   0.659   0.584
 2085SOL    HW1 6254   2.857   0.735   0.533
 2085SOL    HW2 6255   2.839   0.585   0.544
 2086SOL     OW 6256   0.540   3.220   5.076
 2086SOL    HW1 6257   0.541   3.263   5.162
 2086SOL    HW2 6258   0.627   3.181   5.069
 2087SOL     OW 6259   2.135   3.176   0.678
 2087SOL    HW1 6260   2.229   3.193   0.669
 2087SOL    HW2 6261   2.110   3.221   0.758
 2088SOL     OW 6262   4.126   5.124   2.526
 2088SOL    HW1 6263   4.089   5.082   2.449
 2088SOL    HW2 6264   4.220   5.117   2.515
 2089SOL     OW 6265   1.667   3.075   2.513
 2089SOL    HW1 6266   1.760   3.095   2.503
 2089SOL    HW2 6267   1.664   3.012   2.585
 2090SOL     OW 6268   0.493   4.853   2.835
 2090SOL    HW1 6269   0.577   4.847   2.788
 2090SOL    HW2 6270   0.503   4.792   2.909
 2091SOL     OW 6271   4.774   2.404   0.437
 2091SOL    HW1 6272   4.782   2.497   0.458
 2091SOL    HW2 6273   4.681   2.386   0.445
 2092SOL     OW 6274   0.840   1.097   4.822
 2092SOL    HW1 6275   0.829   1.090   4.917
 2092SOL    HW2 6276   0.773   1.159   4.794
 2093SOL     OW 6277   1.576   0.762   0.567
 2093SOL    HW1 6278   1.538   0.820   0.633
 2093SOL    HW2 6279   1.542   0.675   0.589
 2094SOL     OW 6280   1.961   4.695   0.995
 2094SOL    HW1 6281   1.933   4.604   0.992
 2094SOL    HW2 6282   1.925   4.729   1.077
 2095SOL     OW 6283   2.522   3.895   3.559
 2095SOL    HW1 6284   2.486   3.807   3.552
 2095SOL    HW2 6285   2.574   3.893   3.639
 2096SOL     OW 6286   3.469   0.339   1.506
 2096SOL    HW1 6287   3.443   0.270   1.445
 2096SOL    HW2 6288   3.424   0.417   1.473
 2097SOL     OW 6289   4.348   2.456   4.179
 2097SOL    HW1 6290   4.340   2.512   4.102
 2097SOL    HW2 6291   4.295   2.499   4.246
 2098SOL     OW 6292   1.265   0.317   0.344
 2098SOL    HW1 6293   1.190   0.272   0.382
 2098SOL    HW2 6294   1.307   0.250   0.290
 2099SOL     OW 6295   4.094   3.689   5.155
 2099SOL    HW1 6296   4.180   3.730   5.167
 2099SOL    HW2 6297   4.110   3.618   5.093
 2100SOL     OW 6298   4.503   4.325   2.314
 2100SOL    HW1 6299   4.443   4.271   2.365
 2100SOL    HW2 6300   4.580   4.335   2.369
 2101SOL     OW 6301   1.419   1.576   4.862
 2101SOL    HW1 6302   1.363   1.653   4.857
 2101SOL    HW2 6303   1.486   1.591   4.795
 2102SOL     OW 6304   4.337  -0.001   1.859
 2102SOL    HW1 6305   4.363  -0.029   1.947
 2102SOL    HW2 6306   4.260   0.053   1.873
 2103SOL     OW 6307   0.849   4.629   3.103
 2103SOL    HW1 6308   0.795   4.640   3.025
 2103SOL    HW2 6309   0.938   4.651   3.074
 2104SOL     OW 6310   0.439   3.777   4.036
 2104SOL    HW1 6311   0.451   3.837   4.110
 2104SOL    HW2 6312   0.528   3.755   4.009
 2105SOL     OW 6313   2.868   1.110   1.688
 2105SOL    HW1 6314   2.777   1.116   1.716
 2105SOL    HW2 6315   2.864   1.067   1.602
 2106SOL     OW 6316   0.707   4.007   0.793
 2106SOL    HW1 6317   0.630   4.014   0.738
 2106SOL    HW2 6318   0.728   3.913   0.794
 2107SOL     OW 6319   1.437   3.988   1.839
 2107SOL    HW1 6320   1.439   4.048   1.764
 2107SOL    HW2 6321   1.433   4.045   1.916
 2108SOL     OW 6322   2.725   0.727   4.046
 2108SOL    HW1 6323   2.633   0.755   4.050
 2108SOL    HW2 6324   2.768   0.779   4.114
 2109SOL     OW 6325   4.242   1.494   0.185
 2109SOL    HW1 6326   4.293   1.413   0.175
 2109SOL    HW2 6327   4.176   1.489   0.115
 2110SOL     OW 6328   2.624   2.210   1.396
 2110SOL    HW1 6329   2.582   2.275   1.340
 2110SOL    HW2 6330   2.611   2.127   1.351
 2111SOL     OW 6331   0.093   0.222   3.840
 2111SOL    HW1 6332   0.109   0.147   3.782
 2111SOL    HW2 6333   0.110   0.298   3.785
 2112SOL     OW 6334   0.822   1.490   1.290
 2112SOL    HW1 6335   0.898   1.438   1.262
 2112SOL    HW2 6336   0.790   1.445   1.368
 2113SOL     OW 6337   0.791   1.076   3.522
 2113SOL    HW1 6338   0.699   1.092   3.545
 2113SOL    HW2 6339   0.786   1.036   3.435
 2114SOL     OW 6340   1.884   4.906   3.935
 2114SOL    HW1 6341   1.960   4.852   3.915
 2114SOL    HW2 6342   1.878   4.905   4.030
 2115SOL     OW 6343   4.779   1.372   1.966
 2115SOL    HW1 6344   4.708   1.367   2.029
 2115SOL    HW2 6345   4.739   1.348   1.882
 2116SOL     OW 6346   4.086   2.592   0.653
 2116SOL    HW1 6347   4.109   2.578   0.745
 2116SOL    HW2 6348   4.103   2.685   0.637
 2117SOL     OW 6349   3.673   1.038   3.173
 2117SOL    HW1 6350   3.610   1.106   3.148
 2117SOL    HW2 6351   3.658   0.968   3.109
 2118SOL     OW 6352   4.282   1.194   0.513
 2118SOL    HW1 6353   4.278   1.098   0.519
 2118SOL    HW2 6354   4.322   1.211   0.428
 2119SOL     OW 6355   3.936   3.744   0.836
 2119SOL    HW1 6356   3.903   3.662   0.871
 2119SOL    HW2 6357   4.026   3.724   0.809
 2120SOL     OW 6358   4.638   2.053   1.009
 2120SOL    HW1 6359   4.722   2.010   1.020
 2120SOL    HW2 6360   4.647   2.103   0.928
 2121SOL     OW 6361   3.073   5.097   2.597
 2121SOL    HW1 6362   3.033   5.176   2.561
 2121SOL    HW2 6363   3.000   5.035   2.606
 2122SOL     OW 6364   0.032   1.653   1.112
 2122SOL    HW1 6365   0.013   1.696   1.029
 2122SOL    HW2 6366   0.011   1.561   1.096
 2123SOL     OW 6367   2.236   0.520   2.844
 2123SOL    HW1 6368   2.250   0.598   2.896
 2123SOL    HW2 6369   2.283   0.537   2.762
 2124SOL     OW 6370   4.233   5.084   3.295
 2124SOL    HW1 6371   4.319   5.054   3.324
 2124SOL    HW2 6372   4.183   5.003   3.283
 2125SOL     OW 6373   0.234   0.414   1.140
 2125SOL    HW1 6374   0.259   0.491   1.090
 2125SOL    HW2 6375   0.148   0.435   1.177
 2126SOL     OW 6376   1.089   1.052   2.306
 2126SOL    HW1 6377   1.096   0.956   2.309
 2126SOL    HW2 6378   1.009   1.071   2.356
 2127SOL     OW 6379   4.426   2.768   2.582
 2127SOL    HW1 6380   4.371   2.836   2.543
 2127SOL    HW2 6381   4.368   2.723   2.643
 2128SOL     OW 6382   3.469   0.952   4.169
 2128SOL    HW1 6383   3.384   0.965   4.210
 2128SOL    HW2 6384   3.452   0.956   4.075
 2129SOL     OW 6385   4.952   2.743   1.288
 2129SOL    HW1 6386   4.865   2.719   1.256
 2129SOL    HW2 6387   5.007   2.744   1.209
 2130SOL     OW 6388   0.381   1.591   4.687
 2130SOL    HW1 6389   0.449   1.655   4.708
 2130SOL    HW2 6390   0.333   1.579   4.769
 2131SOL     OW 6391   4.381   1.883   2.463
 2131SOL    HW1 6392   4.291   1.915   2.467
 2131SOL    HW2 6393   4.406   1.895   2.371
 2132SOL     OW 6394   2.622   2.864   3.513
 2132SOL    HW1 6395   2.605   2.878   3.607
 2132SOL    HW2 6396   2.539   2.831   3.479
 2133SOL     OW 6397   0.872   1.218   3.786
 2133SOL    HW1 6398   0.888   1.131   3.823
 2133SOL    HW2 6399   0.800   1.204   3.724
 2134SOL     OW 6400   4.715   0.544   4.523
 2134SOL    HW1 6401   4.641   0.519   4.578
 2134SOL    HW2 6402   4.774   0.469   4.524
 2135SOL     OW 6403   0.346   1.569   3.551
 2135SOL    HW1 6404   0.322   1.477   3.537
 2135SOL    HW2 6405   0.318   1.588   3.640
 2136SOL     OW 6406   4.046   3.505   4.757
 2136SOL    HW1 6407   4.077   3.528   4.670
 2136SOL    HW2 6408   4.125   3.491   4.809
 2137SOL     OW 6409   0.613   2.074   0.288
 2137SOL    HW1 6410   0.638   1.985   0.312
 2137SOL    HW2 6411   0.627   2.125   0.368
 2138SOL     OW 6412   3.776   0.218   3.229
 2138SOL    HW1 6413   3.822   0.294   3.263
 2138SOL    HW2 6414   3.839   0.146   3.239
 2139SOL     OW 6415   2.076   4.056   2.049
 2139SOL    HW1 6416   2.061   4.113   1.974
 2139SOL    HW2 6417   2.123   4.111   2.112
 2140SOL     OW 6418   0.494   4.151   3.786
 2140SOL    HW1 6419   0.545   4.170   3.707
 2140SOL    HW2 6420   0.403   4.163   3.759
 2141SOL     OW 6421   2.370   1.083   4.598
 2141SOL    HW1 6422   2.279   1.106   4.614
 2141SOL    HW2 6423   2.384   1.003   4.648
 2142SOL     OW 6424   3.109   4.322   0.949
 2142SOL    HW1 6425   3.045   4.389   0.971
 2142SOL    HW2 6426   3.122   4.332   0.855
 2143SOL     OW 6427   1.954   0.306   4.692
 2143SOL    HW1 6428   1.933   0.225   4.738
 2143SOL    HW2 6429   2.027   0.282   4.634
 2144SOL     OW 6430   1.810   0.448   0.121
 2144SOL    HW1 6431   1.803   0.449   0.217
 2144SOL    HW2 6432   1.891   0.400   0.104
 2145SOL     OW 6433   1.994   0.576   4.308
 2145SOL    HW1 6434   1.912   0.534   4.333
 2145SOL    HW2 6435   1.986   0.589   4.213
 2146SOL     OW 6436   1.397   2.087   4.497
 2146SOL    HW1 6437   1.309   2.101   4.531
 2146SOL    HW2 6438   1.441   2.171   4.508
 2147SOL     OW 6439   2.237   5.023   2.923
 2147SOL    HW1 6440   2.309   5.048   2.866
 2147SOL    HW2 6441   2.229   4.928   2.912
 2148SOL     OW 6442   1.508   4.983   1.499
 2148SOL    HW1 6443   1.597   4.956   1.479
 2148SOL    HW2 6444   1.518   5.066   1.545
 2149SOL     OW 6445   4.300   3.053   0.783
 2149SOL    HW1 6446   4.383   3.082   0.747
 2149SOL    HW2 6447   4.268   3.127   0.835
 2150SOL     OW 6448   1.947   1.026   1.854
 2150SOL    HW1 6449   1.997   1.062   1.928
 2150SOL    HW2 6450   2.006   0.965   1.811
 2151SOL     OW 6451   1.556   2.774   2.168
 2151SOL    HW1 6452   1.582   2.794   2.078
 2151SOL    HW2 6453   1.524   2.857   2.203
 2152SOL     OW 6454   4.769   4.494   5.072
 2152SOL    HW1 6455   4.787   4.403   5.095
 2152SOL    HW2 6456   4.701   4.522   5.134
 2153SOL     OW 6457   3.665   2.996   0.872
 2153SOL    HW1 6458   3.576   3.011   0.901
 2153SOL    HW2 6459   3.672   3.041   0.788
 2154SOL     OW 6460   0.211   0.696   3.557
 2154SOL    HW1 6461   0.292   0.651   3.579
 2154SOL    HW2 6462   0.238   0.770   3.503
 2155SOL     OW 6463   4.699   2.965   0.450
 2155SOL    HW1 6464   4.636   2.987   0.382
 2155SOL    HW2 6465   4.760   3.039   0.451
 2156SOL     OW 6466   3.820   2.137   4.505
 2156SOL    HW1 6467   3.765   2.082   4.560
 2156SOL    HW2 6468   3.760   2.175   4.441
 2157SOL     OW 6469   5.068   0.830   4.427
 2157SOL    HW1 6470   4.978   0.806   4.448
 2157SOL    HW2 6471   5.097   0.883   4.501
 2158SOL     OW 6472   4.929   4.174   1.658
 2158SOL    HW1 6473   4.932   4.227   1.738
 2158SOL    HW2 6474   4.972   4.228   1.592
 2159SOL     OW 6475   0.758   3.487   0.077
 2159SOL    HW1 6476   0.812   3.565   0.060
 2159SOL    HW2 6477   0.671   3.522   0.093
 2160SOL     OW 6478   1.193   2.361   2.514
 2160SOL    HW1 6479   1.122   2.334   2.572
 2160SOL    HW2 6480   1.194   2.294   2.445
 2161SOL     OW 6481   3.800   4.697   3.880
 2161SOL    HW1 6482   3.842   4.676   3.963
 2161SOL    HW2 6483   3.833   4.630   3.819
 2162SOL     OW 6484   1.520   0.030   1.281
 2162SOL    HW1 6485   1.598  -0.026   1.285
 2162SOL    HW2 6486   1.489   0.021   1.191
 2163SOL     OW 6487   0.442   2.931   5.069
 2163SOL    HW1 6488   0.462   3.021   5.045
 2163SOL    HW2 6489   0.385   2.939   5.146
 2164SOL     OW 6490   2.809   3.297   4.175
 2164SOL    HW1 6491   2.802   3.323   4.267
 2164SOL    HW2 6492   2.891   3.248   4.170
 2165SOL     OW 6493   4.108   2.526   0.902
 2165SOL    HW1 6494   4.150   2.594   0.956
 2165SOL    HW2 6495   4.048   2.482   0.963
 2166SOL     OW 6496   4.113   0.761   2.616
 2166SOL    HW1 6497   4.149   0.690   2.668
 2166SOL    HW2 6498   4.033   0.725   2.577
 2167SOL     OW 6499   0.883   0.695   1.666
 2167SOL    HW1 6500   0.794   0.727   1.677
 2167SOL    HW2 6501   0.873   0.601   1.649
 2168SOL     OW 6502   2.199   2.760   0.868
 2168SOL    HW1 6503   2.110   2.738   0.897
 2168SOL    HW2 6504   2.186   2.810   0.788
 2169SOL     OW 6505   4.668   3.025   4.277
 2169SOL    HW1 6506   4.627   3.005   4.193
 2169SOL    HW2 6507   4.596   3.058   4.331
 2170SOL     OW 6508   2.481   4.500   2.063
 2170SOL    HW1 6509   2.416   4.439   2.028
 2170SOL    HW2 6510   2.556   4.444   2.085
 2171SOL     OW 6511   3.169   3.693   1.529
 2171SOL    HW1 6512   3.188   3.709   1.436
 2171SOL    HW2 6513   3.094   3.635   1.528
 2172SOL     OW 6514   1.591   0.877   2.534
 2172SOL    HW1 6515   1.649   0.872   2.610
 2172SOL    HW2 6516   1.630   0.946   2.479
 2173SOL     OW 6517   0.526   1.817   1.575
 2173SOL    HW1 6518   0.519   1.904   1.535
 2173SOL    HW2 6519   0.615   1.814   1.610
 2174SOL     OW 6520   1.514   2.166   1.044
 2174SOL    HW1 6521   1.607   2.183   1.054
 2174SOL    HW2 6522   1.489   2.122   1.126
 2175SOL     OW 6523   2.149   2.672   4.322
 2175SOL    HW1 6524   2.201   2.597   4.351
 2175SOL    HW2 6525   2.118   2.711   4.404
 2176SOL     OW 6526   1.570   3.522   0.495
 2176SOL    HW1 6527   1.481   3.538   0.526
 2176SOL    HW2 6528   1.564   3.437   0.450
 2177SOL     OW 6529   0.724   0.990   1.091
 2177SOL    HW1 6530   0.700   1.068   1.141
 2177SOL    HW2 6531   0.814   1.004   1.064
 2178SOL     OW 6532   4.873   4.821   4.739
 2178SOL    HW1 6533   4.828   4.744   4.773
 2178SOL    HW2 6534   4.807   4.889   4.737
 2179SOL     OW 6535   4.325   1.167   4.427
 2179SOL    HW1 6536   4.265   1.102   4.390
 2179SOL    HW2 6537   4.411   1.142   4.393
 2180SOL     OW 6538   2.454   1.362   1.163
 2180SOL    HW1 6539   2.485   1.451   1.184
 2180SOL    HW2 6540   2.533   1.313   1.142
 2181SOL     OW 6541   0.500   4.415   0.736
 2181SOL    HW1 6542   0.475   4.506   0.719
 2181SOL    HW2 6543   0.470   4.398   0.825
 2182SOL     OW 6544   1.845   0.586   4.064
 2182SOL    HW1 6545   1.779   0.651   4.088
 2182SOL    HW2 6546   1.796   0.503   4.059
 2183SOL     OW 6547   0.904   0.502   0.197
 2183SOL    HW1 6548   0.928   0.533   0.109
 2183SOL    HW2 6549   0.986   0.504   0.246
 2184SOL     OW 6550   1.845   1.069   1.525
 2184SOL    HW1 6551   1.822   1.027   1.441
 2184SOL    HW2 6552   1.915   1.130   1.502
 2185SOL     OW 6553   4.170   3.941   2.247
 2185SOL    HW1 6554   4.075   3.935   2.254
 2185SOL    HW2 6555   4.190   4.030   2.278
 2186SOL     OW 6556   2.139   2.223   4.933
 2186SOL    HW1 6557   2.128   2.311   4.969
 2186SOL    HW2 6558   2.112   2.165   5.003
 2187SOL     OW 6559   3.147   5.071   3.476
 2187SOL    HW1 6560   3.096   5.086   3.396
 2187SOL    HW2 6561   3.236   5.097   3.453
 2188SOL     OW 6562   0.819   4.734  -0.008
 2188SOL    HW1 6563   0.875   4.678   0.045
 2188SOL    HW2 6564   0.827   4.821   0.032
 2189SOL     OW 6565   2.077   2.934   3.712
 2189SOL    HW1 6566   2.157   2.967   3.753
 2189SOL    HW2 6567   2.007   2.979   3.758
 2190SOL     OW 6568   3.768   4.226   1.526
 2190SOL    HW1 6569   3.734   4.165   1.460
 2190SOL    HW2 6570   3.690   4.269   1.561
 2191SOL     OW 6571   2.583   0.893   3.434
 2191SOL    HW1 6572   2.555   0.865   3.522
 2191SOL    HW2 6573   2.552   0.983   3.427
 2192SOL     OW 6574   4.221   0.673   1.767
 2192SOL    HW1 6575   4.242   0.617   1.693
 2192SOL    HW2 6576   4.146   0.726   1.737
 2193SOL     OW 6577   0.993   3.266   3.495
 2193SOL    HW1 6578   0.999   3.268   3.591
 2193SOL    HW2 6579   0.914   3.216   3.477
 2194SOL     OW 6580   3.696   4.518   4.915
 2194SOL    HW1 6581   3.613   4.503   4.871
 2194SOL    HW2 6582   3.738   4.588   4.866
 2195SOL     OW 6583   0.131   2.105   3.706
 2195SOL    HW1 6584   0.222   2.075   3.711
 2195SOL    HW2 6585   0.088   2.042   3.648
 2196SOL     OW 6586   1.823   2.245   0.575
 2196SOL    HW1 6587   1.845   2.154   0.595
 2196SOL    HW2 6588   1.781   2.278   0.655
 2197SOL     OW 6589   0.489   2.343   2.524
 2197SOL    HW1 6590   0.404   2.385   2.510
 2197SOL    HW2 6591   0.527   2.335   2.437
 2198SOL     OW 6592   3.613   0.743   4.094
 2198SOL    HW1 6593   3.554   0.800   4.143
 2198SOL    HW2 6594   3.622   0.785   4.008
 2199SOL     OW 6595   2.421   1.912   4.498
 2199SOL    HW1 6596   2.450   1.926   4.408
 2199SOL    HW2 6597   2.357   1.840   4.492
 2200SOL     OW 6598   2.139   2.817   3.475
 2200SOL    HW1 6599   2.128   2.890   3.537
 2200SOL    HW2 6600   2.198   2.851   3.408
 2201SOL     OW 6601   5.062   2.190   2.091
 2201SOL    HW1 6602   4.988   2.133   2.071
 2201SOL    HW2 6603   5.041   2.229   2.175
 2202SOL     OW 6604   3.697   3.148   2.247
 2202SOL    HW1 6605   3.691   3.225   2.190
 2202SOL    HW2 6606   3.651   3.079   2.199
 2203SOL     OW 6607   0.729   2.626   0.050
 2203SOL    HW1 6608   0.820   2.647   0.069
 2203SOL    HW2 6609   0.734   2.545  -0.002
 2204SOL     OW 6610   3.369   0.968   3.078
 2204SOL    HW1 6611   3.394   0.883   3.115
 2204SOL    HW2 6612   3.316   0.946   3.001
 2205SOL     OW 6613   1.939   0.765   0.626
 2205SOL    HW1 6614   1.918   0.673   0.611
 2205SOL    HW2 6615   1.983   0.767   0.711
 2206SOL     OW 6616   2.203   3.779   2.008
 2206SOL    HW1 6617   2.128   3.748   2.060
 2206SOL    HW2 6618   2.256   3.829   2.070
 2207SOL     OW 6619   0.321   2.517   0.036
 2207SOL    HW1 6620   0.268   2.443   0.065
 2207SOL    HW2 6621   0.280   2.545  -0.046
 2208SOL     OW 6622   4.519   1.824   2.118
 2208SOL    HW1 6623   4.476   1.834   2.033
 2208SOL    HW2 6624   4.469   1.755   2.161
 2209SOL     OW 6625   5.049   3.284   3.334
 2209SOL    HW1 6626   5.050   3.376   3.361
 2209SOL    HW2 6627   5.068   3.236   3.415
 2210SOL     OW 6628   4.714   0.566   0.222
 2210SOL    HW1 6629   4.669   0.514   0.288
 2210SOL    HW2 6630   4.805   0.536   0.227
 2211SOL     OW 6631   0.200   4.147   3.821
 2211SOL    HW1 6632   0.153   4.097   3.887
 2211SOL    HW2 6633   0.168   4.237   3.831
 2212SOL     OW 6634   5.177   0.592   1.593
 2212SOL    HW1 6635   5.134   0.662   1.544
 2212SOL    HW2 6636   5.158   0.512   1.543
 2213SOL     OW 6637   5.002   3.638   3.699
 2213SOL    HW1 6638   4.910   3.661   3.713
 2213SOL    HW2 6639   5.049   3.721   3.709
 2214SOL     OW 6640   2.714   0.444   0.518
 2214SOL    HW1 6641   2.648   0.499   0.560
 2214SOL    HW2 6642   2.693   0.447   0.425
 2215SOL     OW 6643   3.472   0.376   0.747
 2215SOL    HW1 6644   3.426   0.377   0.663
 2215SOL    HW2 6645   3.564   0.363   0.724
 2216SOL     OW 6646   4.434   2.885   2.928
 2216SOL    HW1 6647   4.424   2.923   3.015
 2216SOL    HW2 6648   4.447   2.960   2.870
 2217SOL     OW 6649   1.011   3.673   1.623
 2217SOL    HW1 6650   1.102   3.645   1.634
 2217SOL    HW2 6651   1.010   3.714   1.536
 2218SOL     OW 6652   1.536   2.669   4.923
 2218SOL    HW1 6653   1.550   2.759   4.955
 2218SOL    HW2 6654   1.593   2.615   4.978
 2219SOL     OW 6655   1.380   1.883   3.237
 2219SOL    HW1 6656   1.303   1.931   3.209
 2219SOL    HW2 6657   1.444   1.951   3.259
 2220SOL     OW 6658   4.433   3.801   1.464
 2220SOL    HW1 6659   4.366   3.798   1.533
 2220SOL    HW2 6660   4.502   3.743   1.496
 2221SOL     OW 6661   4.025   4.019   0.036
 2221SOL    HW1 6662   4.033   3.988  -0.055
 2221SOL    HW2 6663   3.991   3.943   0.083
 2222SOL     OW 6664   2.145   1.335   0.038
 2222SOL    HW1 6665   2.166   1.361   0.128
 2222SOL    HW2 6666   2.116   1.416  -0.003
 2223SOL     OW 6667   0.668   4.791   0.305
 2223SOL    HW1 6668   0.701   4.802   0.394
 2223SOL    HW2 6669   0.602   4.722   0.312
 2224SOL     OW 6670   1.871   4.011   3.170
 2224SOL    HW1 6671   1.790   4.038   3.128
 2224SOL    HW2 6672   1.851   3.926   3.209
 2225SOL     OW 6673   0.120   0.354   1.533
 2225SOL    HW1 6674   0.215   0.361   1.543
 2225SOL    HW2 6675   0.108   0.303   1.453
 2226SOL     OW 6676   2.131   0.843   1.650
 2226SOL    HW1 6677   2.041   0.813   1.655
 2226SOL    HW2 6678   2.182   0.764   1.630
 2227SOL     OW 6679   0.065   4.517   1.421
 2227SOL    HW1 6680   0.068   4.599   1.469
 2227SOL    HW2 6681   0.029   4.541   1.335
 2228SOL     OW 6682   0.594   0.563   2.494
 2228SOL    HW1 6683   0.636   0.649   2.490
 2228SOL    HW2 6684   0.505   0.581   2.524
 2229SOL     OW 6685   2.952   2.733   1.345
 2229SOL    HW1 6686   2.951   2.644   1.380
 2229SOL    HW2 6687   2.863   2.747   1.313
 2230SOL     OW 6688   2.595   0.339   3.268
 2230SOL    HW1 6689   2.539   0.388   3.208
 2230SOL    HW2 6690   2.536   0.277   3.311
 2231SOL     OW 6691   1.059   4.770   2.995
 2231SOL    HW1 6692   1.109   4.751   2.916
 2231SOL    HW2 6693   1.114   4.740   3.067
 2232SOL     OW 6694   2.971   2.737   2.603
 2232SOL    HW1 6695   3.054   2.785   2.602
 2232SOL    HW2 6696   2.942   2.741   2.694
 2233SOL     OW 6697   3.018   1.884   4.184
 2233SOL    HW1 6698   2.948   1.819   4.185
 2233SOL    HW2 6699   3.095   1.837   4.151
 2234SOL     OW 6700   4.805   0.542   2.771
 2234SOL    HW1 6701   4.893   0.550   2.733
 2234SOL    HW2 6702   4.780   0.632   2.793
 2235SOL     OW 6703   0.718   4.311   3.048
 2235SOL    HW1 6704   0.641   4.286   3.098
 2235SOL    HW2 6705   0.781   4.340   3.114
 2236SOL     OW 6706   0.930   3.227   0.528
 2236SOL    HW1 6707   0.967   3.228   0.616
 2236SOL    HW2 6708   0.887   3.142   0.520
 2237SOL     OW 6709   0.461   4.175   4.524
 2237SOL    HW1 6710   0.498   4.088   4.507
 2237SOL    HW2 6711   0.371   4.158   4.554
 2238SOL     OW 6712   3.399   0.173   1.238
 2238SOL    HW1 6713   3.350   0.124   1.304
 2238SOL    HW2 6714   3.332   0.209   1.180
 2239SOL     OW 6715   1.404   1.892   0.724
 2239SOL    HW1 6716   1.407   1.865   0.632
 2239SOL    HW2 6717   1.338   1.834   0.762
 2240SOL     OW 6718   3.919   1.317   1.296
 2240SOL    HW1 6719   3.928   1.222   1.309
 2240SOL    HW2 6720   4.009   1.349   1.292
 2241SOL     OW 6721   0.776   3.292   4.923
 2241SOL    HW1 6722   0.864   3.330   4.934
 2241SOL    HW2 6723   0.790   3.197   4.926
 2242SOL     OW 6724   0.569   3.432   2.141
 2242SOL    HW1 6725   0.535   3.390   2.062
 2242SOL    HW2 6726   0.662   3.409   2.143
 2243SOL     OW 6727   0.168   3.254   4.874
 2243SOL    HW1 6728   0.206   3.286   4.792
 2243SOL    HW2 6729   0.091   3.310   4.888
 2244SOL     OW 6730   3.454   0.383   0.473
 2244SOL    HW1 6731   3.362   0.404   0.455
 2244SOL    HW2 6732   3.497   0.468   0.478
 2245SOL     OW 6733   0.349   0.422   0.062
 2245SOL    HW1 6734   0.422   0.483   0.054
 2245SOL    HW2 6735   0.316   0.411  -0.027
 2246SOL     OW 6736   0.084   3.677   3.067
 2246SOL    HW1 6737   0.171   3.642   3.045
 2246SOL    HW2 6738   0.030   3.599   3.079
 2247SOL     OW 6739   3.366   3.906   2.506
 2247SOL    HW1 6740   3.389   3.826   2.554
 2247SOL    HW2 6741   3.390   3.887   2.416
 2248SOL     OW 6742   4.903   1.893   2.945
 2248SOL    HW1 6743   4.809   1.910   2.953
 2248SOL    HW2 6744   4.922   1.827   3.012
 2249SOL     OW 6745   2.144   2.810   0.561
 2249SOL    HW1 6746   2.095   2.892   0.554
 2249SOL    HW2 6747   2.172   2.792   0.471
 2250SOL     OW 6748   0.091   3.749   0.087
 2250SOL    HW1 6749   0.137   3.828   0.116
 2250SOL    HW2 6750   0.011   3.748   0.139
 2251SOL     OW 6751   4.273   0.309   2.568
 2251SOL    HW1 6752   4.228   0.322   2.484
 2251SOL    HW2 6753   4.366   0.306   2.545
 2252SOL     OW 6754   0.901   4.603   0.220
 2252SOL    HW1 6755   0.909   4.662   0.295
 2252SOL    HW2 6756   0.844   4.532   0.251
 2253SOL     OW 6757   0.683   1.806   4.050
 2253SOL    HW1 6758   0.596   1.823   4.014
 2253SOL    HW2 6759   0.729   1.760   3.980
 2254SOL     OW 6760   0.709   0.840   3.977
 2254SOL    HW1 6761   0.752   0.901   3.917
 2254SOL    HW2 6762   0.616   0.863   3.973
 2255SOL     OW 6763   1.382   0.688   4.672
 2255SOL    HW1 6764   1.384   0.747   4.747
 2255SOL    HW2 6765   1.293   0.653   4.671
 2256SOL     OW 6766   4.638   2.332   2.173
 2256SOL    HW1 6767   4.596   2.360   2.254
 2256SOL    HW2 6768   4.708   2.273   2.201
 2257SOL     OW 6769   5.003   3.781   0.500
 2257SOL    HW1 6770   5.062   3.854   0.483
 2257SOL    HW2 6771   4.957   3.805   0.580
 2258SOL     OW 6772   1.764   2.324   2.295
 2258SOL    HW1 6773   1.791   2.412   2.268
 2258SOL    HW2 6774   1.678   2.312   2.256
 2259SOL     OW 6775   3.051   3.960   3.273
 2259SOL    HW1 6776   3.104   3.983   3.349
 2259SOL    HW2 6777   3.114   3.953   3.201
 2260SOL     OW 6778   3.990   1.784   0.163
 2260SOL    HW1 6779   3.907   1.740   0.179
 2260SOL    HW2 6780   4.053   1.739   0.218
 2261SOL     OW 6781   1.241   3.976   1.309
 2261SOL    HW1 6782   1.170   4.024   1.352
 2261SOL    HW2 6783   1.270   4.034   1.239
 2262SOL     OW 6784   2.443   2.863   2.889
 2262SOL    HW1 6785   2.477   2.843   2.802
 2262SOL    HW2 6786   2.410   2.780   2.921
 2263SOL     OW 6787   3.237   1.212   0.052
 2263SOL    HW1 6788   3.161   1.235   0.105
 2263SOL    HW2 6789   3.254   1.290  -0.001
 2264SOL     OW 6790   2.440   2.401   1.599
 2264SOL    HW1 6791   2.363   2.344   1.604
 2264SOL    HW2 6792   2.493   2.364   1.529
 2265SOL     OW 6793   2.197   3.678   0.398
 2265SOL    HW1 6794   2.174   3.586   0.412
 2265SOL    HW2 6795   2.278   3.690   0.448
 2266SOL     OW 6796   2.293   2.476   2.655
 2266SOL    HW1 6797   2.317   2.503   2.566
 2266SOL    HW2 6798   2.239   2.398   2.643
 2267SOL     OW 6799   3.220   3.145   1.577
 2267SOL    HW1 6800   3.298   3.116   1.625
 2267SOL    HW2 6801   3.153   3.082   1.599
 2268SOL     OW 6802   2.072   0.846   0.390
 2268SOL    HW1 6803   1.998   0.824   0.447
 2268SOL    HW2 6804   2.031   0.880   0.311
 2269SOL     OW 6805   2.526   4.844   4.272
 2269SOL    HW1 6806   2.594   4.795   4.226
 2269SOL    HW2 6807   2.444   4.816   4.232
 2270SOL     OW 6808   1.620   2.631   3.899
 2270SOL    HW1 6809   1.681   2.645   3.972
 2270SOL    HW2 6810   1.571   2.714   3.893
 2271SOL     OW 6811   2.012   2.520   0.473
 2271SOL    HW1 6812   1.954   2.475   0.534
 2271SOL    HW2 6813   2.070   2.571   0.529
 2272SOL     OW 6814   1.499   1.500   2.699
 2272SOL    HW1 6815   1.454   1.447   2.764
 2272SOL    HW2 6816   1.535   1.574   2.749
 2273SOL     OW 6817   2.939   3.197   3.321
 2273SOL    HW1 6818   2.935   3.281   3.367
 2273SOL    HW2 6819   2.924   3.131   3.389
 2274SOL     OW 6820   3.374   5.182   3.261
 2274SOL    HW1 6821   3.447   5.205   3.318
 2274SOL    HW2 6822   3.415   5.149   3.181
 2275SOL     OW 6823   0.713   0.045   0.247
 2275SOL    HW1 6824   0.750   0.130   0.272
 2275SOL    HW2 6825   0.667   0.015   0.325
 2276SOL     OW 6826   2.986   0.962   2.552
 2276SOL    HW1 6827   2.953   1.036   2.603
 2276SOL    HW2 6828   3.074   0.947   2.586
 2277SOL     OW 6829   4.093   3.747   1.460
 2277SOL    HW1 6830   4.031   3.818   1.477
 2277SOL    HW2 6831   4.167   3.764   1.519
 2278SOL     OW 6832   1.280   2.499   2.899
 2278SOL    HW1 6833   1.200   2.450   2.919
 2278SOL    HW2 6834   1.349   2.450   2.943
 2279SOL     OW 6835   3.631   4.553   1.197
 2279SOL    HW1 6836   3.663   4.577   1.284
 2279SOL    HW2 6837   3.675   4.471   1.177
 2280SOL     OW 6838   4.508   2.282   1.119
 2280SOL    HW1 6839   4.448   2.266   1.191
 2280SOL    HW2 6840   4.555   2.199   1.108
 2281SOL     OW 6841   5.015   1.533   3.413
 2281SOL    HW1 6842   4.925   1.525   3.379
 2281SOL    HW2 6843   5.035   1.446   3.446
 2282SOL     OW 6844   4.871   4.335   2.158
 2282SOL    HW1 6845   4.891   4.427   2.140
 2282SOL    HW2 6846   4.780   4.324   2.131
 2283SOL     OW 6847   1.793   2.340   1.946
 2283SOL    HW1 6848   1.873   2.345   1.997
 2283SOL    HW2 6849   1.770   2.431   1.927
 2284SOL     OW 6850   1.493   1.893   4.674
 2284SOL    HW1 6851   1.475   1.963   4.611
 2284SOL    HW2 6852   1.414   1.839   4.674
 2285SOL     OW 6853   0.676   0.407   4.456
 2285SOL    HW1 6854   0.728   0.465   4.512
 2285SOL    HW2 6855   0.674   0.451   4.371
 2286SOL     OW 6856   0.243   2.591   1.197
 2286SOL    HW1 6857   0.296   2.638   1.262
 2286SOL    HW2 6858   0.214   2.511   1.242
 2287SOL     OW 6859   1.536   2.322   4.547
 2287SOL    HW1 6860   1.531   2.406   4.592
 2287SOL    HW2 6861   1.594   2.338   4.472
 2288SOL     OW 6862   0.812   0.802   0.188
 2288SOL    HW1 6863   0.827   0.715   0.226
 2288SOL    HW2 6864   0.734   0.834   0.232
 2289SOL     OW 6865   4.870   1.372   4.534
 2289SOL    HW1 6866   4.797   1.429   4.559
 2289SOL    HW2 6867   4.858   1.357   4.440
 2290SOL     OW 6868   3.130   0.382   4.042
 2290SOL    HW1 6869   3.061   0.445   4.024
 2290SOL    HW2 6870   3.211   0.433   4.037
 2291SOL     OW 6871   2.957   4.472   4.264
 2291SOL    HW1 6872   3.046   4.440   4.281
 2291SOL    HW2 6873   2.968   4.563   4.237
 2292SOL     OW 6874   0.733   0.851   4.336
 2292SOL    HW1 6875   0.770   0.923   4.387
 2292SOL    HW2 6876   0.672   0.892   4.276
 2293SOL     OW 6877   1.823   3.723   4.607
 2293SOL    HW1 6878   1.733   3.693   4.596
 2293SOL    HW2 6879   1.839   3.712   4.701
 2294SOL     OW 6880   4.408   5.080   0.938
 2294SOL    HW1 6881   4.401   4.985   0.928
 2294SOL    HW2 6882   4.317   5.112   0.936
 2295SOL     OW 6883   3.889   4.824   5.058
 2295SOL    HW1 6884   3.803   4.845   5.096
 2295SOL    HW2 6885   3.893   4.875   4.977
 2296SOL     OW 6886   4.783   3.742   4.230
 2296SOL    HW1 6887   4.762   3.700   4.313
 2296SOL    HW2 6888   4.860   3.795   4.248
 2297SOL     OW 6889   3.303   4.569   3.991
 2297SOL    HW1 6890   3.375   4.596   4.047
 2297SOL    HW2 6891   3.305   4.473   3.994
 2298SOL     OW 6892   5.118   0.208   2.669
 2298SOL    HW1 6893   5.143   0.136   2.727
 2298SOL    HW2 6894   5.200   0.238   2.631
 2299SOL     OW 6895   5.005   3.389   3.767
 2299SOL    HW1 6896   5.020   3.380   3.861
 2299SOL    HW2 6897   5.019   3.482   3.749
 2300SOL     OW 6898   0.189   0.729   1.698
 2300SOL    HW1 6899   0.103   0.699   1.668
 2300SOL    HW2 6900   0.199   0.689   1.785
 2301SOL     OW 6901   3.010   3.642   4.945
 2301SOL    HW1 6902   2.983   3.733   4.957
 2301SOL    HW2 6903   3.061   3.622   5.024
 2302SOL     OW 6904   4.344   5.101   0.578
 2302SOL    HW1 6905   4.377   5.016   0.604
 2302SOL    HW2 6906   4.255   5.104   0.612
 2303SOL     OW 6907   4.030   1.090   2.345
 2303SOL    HW1 6908   4.035   1.185   2.331
 2303SOL    HW2 6909   4.106   1.055   2.297
 2304SOL     OW 6910   4.861   2.159   0.507
 2304SOL    HW1 6911   4.813   2.242   0.509
 2304SOL    HW2 6912   4.951   2.183   0.489
 2305SOL     OW 6913   4.077   4.319   3.929
 2305SOL    HW1 6914   4.096   4.312   3.836
 2305SOL    HW2 6915   4.122   4.245   3.969
 2306SOL     OW 6916   3.004   1.229   2.724
 2306SOL    HW1 6917   2.980   1.284   2.798
 2306SOL    HW2 6918   2.972   1.276   2.647
 2307SOL     OW 6919   2.391   1.972   1.740
 2307SOL    HW1 6920   2.409   1.889   1.694
 2307SOL    HW2 6921   2.371   1.945   1.830
 2308SOL     OW 6922   4.835   1.677   4.335
 2308SOL    HW1 6923   4.797   1.600   4.378
 2308SOL    HW2 6924   4.760   1.724   4.298
 2309SOL     OW 6925   0.080   3.742   4.816
 2309SOL    HW1 6926   0.145   3.730   4.885
 2309SOL    HW2 6927   0.127   3.783   4.744
 2310SOL     OW 6928   1.261   1.381   3.538
 2310SOL    HW1 6929   1.277   1.359   3.630
 2310SOL    HW2 6930   1.293   1.471   3.529
 2311SOL     OW 6931   1.684   3.693   1.897
 2311SOL    HW1 6932   1.745   3.763   1.921
 2311SOL    HW2 6933   1.655   3.657   1.981
 2312SOL     OW 6934   0.233   1.732   2.885
 2312SOL    HW1 6935   0.209   1.642   2.904
 2312SOL    HW2 6936   0.189   1.752   2.803
 2313SOL     OW 6937   4.122   4.320   1.874
 2313SOL    HW1 6938   4.132   4.359   1.961
 2313SOL    HW2 6939   4.035   4.279   1.877
 2314SOL     OW 6940   1.816   2.643   0.689
 2314SOL    HW1 6941   1.873   2.680   0.756
 2314SOL    HW2 6942   1.728   2.646   0.727
 2315SOL     OW 6943   1.299   3.028   2.057
 2315SOL    HW1 6944   1.268   3.072   1.978
 2315SOL    HW2 6945   1.393   3.048   2.060
 2316SOL     OW 6946   2.863   0.367   2.469
 2316SOL    HW1 6947   2.798   0.359   2.538
 2316SOL    HW2 6948   2.823   0.426   2.405
 2317SOL     OW 6949   4.085   5.081   2.102
 2317SOL    HW1 6950   4.037   5.066   2.021
 2317SOL    HW2 6951   4.058   5.169   2.130
 2318SOL     OW 6952   3.564   2.332   2.208
 2318SOL    HW1 6953   3.559   2.328   2.304
 2318SOL    HW2 6954   3.474   2.320   2.179
 2319SOL     OW 6955   3.427   3.006   2.409
 2319SOL    HW1 6956   3.445   3.090   2.366
 2319SOL    HW2 6957   3.459   3.018   2.499
 2320SOL     OW 6958   1.051   2.954   4.573
 2320SOL    HW1 6959   0.957   2.945   4.588
 2320SOL    HW2 6960   1.090   2.938   4.659
 2321SOL     OW 6961   4.767   2.341   2.579
 2321SOL    HW1 6962   4.781   2.277   2.648
 2321SOL    HW2 6963   4.726   2.416   2.623
 2322SOL     OW 6964   1.284   3.530   3.905
 2322SOL    HW1 6965   1.232   3.571   3.974
 2322SOL    HW2 6966   1.368   3.574   3.908
 2323SOL     OW 6967   0.981   0.102   2.879
 2323SOL    HW1 6968   1.022   0.039   2.821
 2323SOL    HW2 6969   1.051   0.127   2.940
 2324SOL     OW 6970   2.203   4.213   3.129
 2324SOL    HW1 6971   2.136   4.178   3.070
 2324SOL    HW2 6972   2.229   4.138   3.183
 2325SOL     OW 6973   3.131   1.415   0.727
 2325SOL    HW1 6974   3.226   1.406   0.713
 2325SOL    HW2 6975   3.107   1.335   0.775
 2326SOL     OW 6976   0.957   4.383   4.216
 2326SOL    HW1 6977   0.899   4.341   4.280
 2326SOL    HW2 6978   0.900   4.443   4.168
 2327SOL     OW 6979   0.757   1.621   0.517
 2327SOL    HW1 6980   0.776   1.699   0.466
 2327SOL    HW2 6981   0.759   1.650   0.608
 2328SOL     OW 6982   2.386   4.752   4.966
 2328SOL    HW1 6983   2.387   4.838   5.008
 2328SOL    HW2 6984   2.313   4.757   4.904
 2329SOL     OW 6985   3.569   5.041   3.080
 2329SOL    HW1 6986   3.570   4.965   3.139
 2329SOL    HW2 6987   3.646   5.030   3.025
 2330SOL     OW 6988   0.863   4.213   0.896
 2330SOL    HW1 6989   0.804   4.141   0.875
 2330SOL    HW2 6990   0.855   4.225   0.990
 2331SOL     OW 6991   1.147   0.676   3.780
 2331SOL    HW1 6992   1.087   0.669   3.854
 2331SOL    HW2 6993   1.200   0.596   3.785
 2332SOL     OW 6994   0.885   3.358   1.815
 2332SOL    HW1 6995   0.852   3.402   1.736
 2332SOL    HW2 6996   0.915   3.273   1.783
 2333SOL     OW 6997   1.965   1.502   2.323
 2333SOL    HW1 6998   1.949   1.444   2.248
 2333SOL    HW2 6999   1.924   1.585   2.298
 2334SOL     OW 7000   0.382   2.874   4.508
 2334SOL    HW1 7001   0.415   2.896   4.594
 2334SOL    HW2 7002   0.358   2.958   4.469
 2335SOL     OW 7003   1.506   0.514   3.151
 2335SOL    HW1 7004   1.602   0.517   3.150
 2335SOL    HW2 7005   1.482   0.479   3.066
 2336SOL     OW 7006   3.057   4.736   3.252
 2336SOL    HW1 7007   2.986   4.799   3.261
 2336SOL    HW2 7008   3.014   4.655   3.225
 2337SOL     OW 7009   0.419   0.634   4.370
 2337SOL    HW1 7010   0.389   0.544   4.359
 2337SOL    HW2 7011   0.354   0.674   4.428
 2338SOL     OW 7012   1.165   2.237   3.701
 2338SOL    HW1 7013   1.236   2.264   3.643
 2338SOL    HW2 7014   1.149   2.313   3.757
 2339SOL     OW 7015   0.805   0.864   5.081
 2339SOL    HW1 7016   0.792   0.841   5.173
 2339SOL    HW2 7017   0.895   0.837   5.062
 2340SOL     OW 7018   4.865   4.901   3.973
 2340SOL    HW1 7019   4.850   4.820   3.922
 2340SOL    HW2 7020   4.916   4.957   3.914
 2341SOL     OW 7021   3.250   2.428   2.393
 2341SOL    HW1 7022   3.322   2.383   2.436
 2341SOL    HW2 7023   3.173   2.376   2.413
 2342SOL     OW 7024   2.325   4.846   0.690
 2342SOL    HW1 7025   2.264   4.810   0.626
 2342SOL    HW2 7026   2.280   4.835   0.774
 2343SOL     OW 7027   2.815   0.083   3.572
 2343SOL    HW1 7028   2.805   0.104   3.665
 2343SOL    HW2 7029   2.812  -0.013   3.569
 2344SOL     OW 7030   4.306   3.079   0.126
 2344SOL    HW1 7031   4.211   3.076   0.132
 2344SOL    HW2 7032   4.332   2.990   0.103
 2345SOL     OW 7033   0.826   0.606   2.693
 2345SOL    HW1 7034   0.880   0.527   2.703
 2345SOL    HW2 7035   0.737   0.572   2.685
 2346SOL     OW 7036   5.143   0.333   0.443
 2346SOL    HW1 7037   5.182   0.418   0.422
 2346SOL    HW2 7038   5.168   0.276   0.370
 2347SOL     OW 7039   4.160   0.814   1.435
 2347SOL    HW1 7040   4.149   0.904   1.468
 2347SOL    HW2 7041   4.078   0.771   1.458
 2348SOL     OW 7042   0.712   0.700   1.019
 2348SOL    HW1 7043   0.740   0.666   1.104
 2348SOL    HW2 7044   0.729   0.794   1.025
 2349SOL     OW 7045   1.958   5.119   4.142
 2349SOL    HW1 7046   1.966   5.209   4.174
 2349SOL    HW2 7047   1.946   5.129   4.048
 2350SOL     OW 7048   4.772   2.468   1.749
 2350SOL    HW1 7049   4.689   2.479   1.703
 2350SOL    HW2 7050   4.767   2.530   1.822
 2351SOL     OW 7051   4.978   3.174   2.426
 2351SOL    HW1 7052   4.996   3.155   2.334
 2351SOL    HW2 7053   4.908   3.240   2.424
 2352SOL     OW 7054   0.038   2.785   4.404
 2352SOL    HW1 7055  -0.006   2.852   4.457
 2352SOL    HW2 7056   0.010   2.702   4.443
 2353SOL     OW 7057   4.699   3.328   3.187
 2353SOL    HW1 7058   4.734   3.245   3.219
 2353SOL    HW2 7059   4.659   3.369   3.264
 2354SOL     OW 7060   0.458   4.202   2.414
 2354SOL    HW1 7061   0.421   4.169   2.496
 2354SOL    HW2 7062   0.500   4.285   2.437
 2355SOL     OW 7063   3.910   0.772   3.867
 2355SOL    HW1 7064   3.821   0.806   3.878
 2355SOL    HW2 7065   3.916   0.746   3.775
 2356SOL     OW 7066   2.502   4.540   0.531
 2356SOL    HW1 7067   2.438   4.599   0.491
 2356SOL    HW2 7068   2.448   4.477   0.579
 2357SOL     OW 7069   3.875   4.503   2.923
 2357SOL    HW1 7070   3.899   4.440   2.855
 2357SOL    HW2 7071   3.853   4.450   2.999
 2358SOL     OW 7072   4.704   3.543   4.424
 2358SOL    HW1 7073   4.721   3.509   4.512
 2358SOL    HW2 7074   4.764   3.495   4.367
 2359SOL     OW 7075   1.161   1.260   0.118
 2359SOL    HW1 7076   1.140   1.276   0.211
 2359SOL    HW2 7077   1.079   1.226   0.081
 2360SOL     OW 7078   3.008   2.148   2.871
 2360SOL    HW1 7079   2.957   2.117   2.796
 2360SOL    HW2 7080   2.948   2.204   2.920
 2361SOL     OW 7081   2.583   0.783   2.549
 2361SOL    HW1 7082   2.549   0.855   2.495
 2361SOL    HW2 7083   2.666   0.760   2.508
 2362SOL     OW 7084   4.236   0.462   1.574
 2362SOL    HW1 7085   4.196   0.477   1.488
 2362SOL    HW2 7086   4.214   0.371   1.595
 2363SOL     OW 7087   0.640   4.301   3.513
 2363SOL    HW1 7088   0.670   4.390   3.527
 2363SOL    HW2 7089   0.546   4.309   3.495
 2364SOL     OW 7090   4.731   3.183   1.897
 2364SOL    HW1 7091   4.794   3.134   1.949
 2364SOL    HW2 7092   4.773   3.268   1.881
 2365SOL     OW 7093   4.169   4.681   3.718
 2365SOL    HW1 7094   4.246   4.667   3.773
 2365SOL    HW2 7095   4.204   4.680   3.628
 2366SOL     OW 7096   3.756   0.987   4.380
 2366SOL    HW1 7097   3.673   0.976   4.425
 2366SOL    HW2 7098   3.773   1.081   4.383
 2367SOL     OW 7099   1.806   1.039   0.401
 2367SOL    HW1 7100   1.763   0.954   0.407
 2367SOL    HW2 7101   1.734   1.102   0.411
 2368SOL     OW 7102   3.579   3.376   4.465
 2368SOL    HW1 7103   3.561   3.377   4.559
 2368SOL    HW2 7104   3.638   3.450   4.451
 2369SOL     OW 7105   3.238   1.985   1.686
 2369SOL    HW1 7106   3.203   1.983   1.775
 2369SOL    HW2 7107   3.294   1.907   1.681
 2370SOL     OW 7108   0.990   3.126   2.514
 2370SOL    HW1 7109   0.996   3.189   2.586
 2370SOL    HW2 7110   1.045   3.165   2.445
 2371SOL     OW 7111   4.795   1.269   0.779
 2371SOL    HW1 7112   4.857   1.331   0.819
 2371SOL    HW2 7113   4.748   1.321   0.714
 2372SOL     OW 7114   4.498   2.124   1.662
 2372SOL    HW1 7115   4.434   2.195   1.667
 2372SOL    HW2 7116   4.533   2.129   1.573
 2373SOL     OW 7117   1.286   4.975   1.340
 2373SOL    HW1 7118   1.288   5.042   1.271
 2373SOL    HW2 7119   1.375   4.977   1.377
 2374SOL     OW 7120   5.050   2.405   5.000
 2374SOL    HW1 7121   4.989   2.380   4.931
 2374SOL    HW2 7122   5.096   2.324   5.022
 2375SOL     OW 7123   4.199   3.441   2.616
 2375SOL    HW1 7124   4.116   3.397   2.633
 2375SOL    HW2 7125   4.259   3.404   2.681
 2376SOL     OW 7126   2.277   2.209   4.333
 2376SOL    HW1 7127   2.197   2.184   4.378
 2376SOL    HW2 7128   2.325   2.127   4.320
 2377SOL     OW 7129   0.500   5.036   2.240
 2377SOL    HW1 7130   0.524   5.030   2.333
 2377SOL    HW2 7131   0.563   4.980   2.195
 2378SOL     OW 7132   3.581   1.298   2.101
 2378SOL    HW1 7133   3.630   1.358   2.044
 2378SOL    HW2 7134   3.632   1.294   2.182
 2379SOL     OW 7135   0.305   3.308   4.139
 2379SOL    HW1 7136   0.362   3.255   4.194
 2379SOL    HW2 7137   0.355   3.388   4.123
 2380SOL     OW 7138   0.647   4.991   1.224
 2380SOL    HW1 7139   0.677   5.029   1.142
 2380SOL    HW2 7140   0.637   5.065   1.283
 2381SOL     OW 7141   4.272   3.146   4.957
 2381SOL    HW1 7142   4.248   3.057   4.934
 2381SOL    HW2 7143   4.210   3.171   5.026
 2382SOL     OW 7144   5.134   1.939   3.550
 2382SOL    HW1 7145   5.096   1.871   3.606
 2382SOL    HW2 7146   5.058   1.986   3.515
 2383SOL     OW 7147   1.957   4.602   4.994
 2383SOL    HW1 7148   2.006   4.521   5.013
 2383SOL    HW2 7149   1.984   4.625   4.905
 2384SOL     OW 7150   1.809   1.835   1.478
 2384SOL    HW1 7151   1.807   1.817   1.384
 2384SOL    HW2 7152   1.760   1.763   1.517
 2385SOL     OW 7153   0.483   1.576   4.020
 2385SOL    HW1 7154   0.438   1.571   4.104
 2385SOL    HW2 7155   0.575   1.590   4.043
 2386SOL     OW 7156   4.860   2.017   5.002
 2386SOL    HW1 7157   4.834   2.093   5.054
 2386SOL    HW2 7158   4.933   1.979   5.050
 2387SOL     OW 7159   3.380  -0.029   4.886
 2387SOL    HW1 7160   3.466   0.004   4.913
 2387SOL    HW2 7161   3.336   0.048   4.849
 2388SOL     OW 7162   2.673   0.499   4.985
 2388SOL    HW1 7163   2.635   0.513   5.072
 2388SOL    HW2 7164   2.640   0.414   4.958
 2389SOL     OW 7165   2.354   2.778   1.125
 2389SOL    HW1 7166   2.304   2.795   1.045
 2389SOL    HW2 7167   2.391   2.863   1.149
 2390SOL     OW 7168   4.438   3.595   4.499
 2390SOL    HW1 7169   4.515   3.566   4.451
 2390SOL    HW2 7170   4.439   3.544   4.579
 2391SOL     OW 7171   4.033   3.363   4.350
 2391SOL    HW1 7172   4.077   3.295   4.299
 2391SOL    HW2 7173   3.960   3.319   4.392
 2392SOL     OW 7174   3.448   4.915   0.965
 2392SOL    HW1 7175   3.407   4.986   0.916
 2392SOL    HW2 7176   3.385   4.893   1.033
 2393SOL     OW 7177   1.089   2.887   2.174
 2393SOL    HW1 7178   1.139   2.828   2.230
 2393SOL    HW2 7179   1.154   2.947   2.138
 2394SOL     OW 7180   5.010   0.763   4.134
 2394SOL    HW1 7181   4.995   0.759   4.228
 2394SOL    HW2 7182   5.104   0.754   4.124
 2395SOL     OW 7183   2.137   0.365   3.563
 2395SOL    HW1 7184   2.090   0.439   3.526
 2395SOL    HW2 7185   2.077   0.328   3.629
 2396SOL     OW 7186   0.311   3.667   4.611
 2396SOL    HW1 7187   0.266   3.619   4.542
 2396SOL    HW2 7188   0.383   3.610   4.638
 2397SOL     OW 7189   3.645   1.828   0.446
 2397SOL    HW1 7190   3.705   1.829   0.371
 2397SOL    HW2 7191   3.702   1.807   0.521
 2398SOL     OW 7192   3.544   3.959   3.638
 2398SOL    HW1 7193   3.478   4.006   3.689
 2398SOL    HW2 7194   3.539   3.998   3.550
 2399SOL     OW 7195   1.679   5.169   4.969
 2399SOL    HW1 7196   1.756   5.140   5.019
 2399SOL    HW2 7197   1.607   5.119   5.006
 2400SOL     OW 7198   4.453   3.126   1.813
 2400SOL    HW1 7199   4.544   3.154   1.822
 2400SOL    HW2 7200   4.449   3.081   1.729
 2401SOL     OW 7201   4.173   2.313   3.622
 2401SOL    HW1 7202   4.088   2.341   3.587
 2401SOL    HW2 7203   4.199   2.240   3.566
 2402SOL     OW 7204   3.700   0.623   4.317
 2402SOL    HW1 7205   3.786   0.580   4.310
 2402SOL    HW2 7206   3.675   0.642   4.227
 2403SOL     OW 7207   4.323   1.226   3.141
 2403SOL    HW1 7208   4.265   1.219   3.066
 2403SOL    HW2 7209   4.390   1.159   3.126
 2404SOL     OW 7210   0.892  -0.022   3.203
 2404SOL    HW1 7211   0.903   0.069   3.229
 2404SOL    HW2 7212   0.975  -0.046   3.162
 2405SOL     OW 7213   3.121   3.685   4.008
 2405SOL    HW1 7214   3.202   3.644   3.980
 2405SOL    HW2 7215   3.057   3.614   4.009
 2406SOL     OW 7216   3.832   2.581   3.549
 2406SOL    HW1 7217   3.819   2.607   3.458
 2406SOL    HW2 7218   3.897   2.644   3.582
 2407SOL     OW 7219   1.273   3.481   5.089
 2407SOL    HW1 7220   1.273   3.550   5.155
 2407SOL    HW2 7221   1.229   3.407   5.132
 2408SOL     OW 7222   4.590   2.924   5.098
 2408SOL    HW1 7223   4.633   2.979   5.032
 2408SOL    HW2 7224   4.659   2.865   5.128
 2409SOL     OW 7225   5.014   4.018   4.201
 2409SOL    HW1 7226   5.071   4.073   4.147
 2409SOL    HW2 7227   5.063   3.937   4.212
 2410SOL     OW 7228   3.822   3.499   0.898
 2410SOL    HW1 7229   3.886   3.452   0.951
 2410SOL    HW2 7230   3.749   3.516   0.958
 2411SOL     OW 7231   4.560   2.622   1.362
 2411SOL    HW1 7232   4.567   2.672   1.443
 2411SOL    HW2 7233   4.522   2.539   1.388
 2412SOL     OW 7234   0.565   1.542   0.336
 2412SOL    HW1 7235   0.602   1.563   0.421
 2412SOL    HW2 7236   0.641   1.532   0.278
 2413SOL     OW 7237   2.913   4.259   3.999
 2413SOL    HW1 7238   2.967   4.310   4.058
 2413SOL    HW2 7239   2.964   4.251   3.919
 2414SOL     OW 7240   1.699   4.354   0.328
 2414SOL    HW1 7241   1.787   4.329   0.298
 2414SOL    HW2 7242   1.672   4.281   0.384
 2415SOL     OW 7243   3.318   1.819   0.156
 2415SOL    HW1 7244   3.251   1.794   0.220
 2415SOL    HW2 7245   3.375   1.879   0.204
 2416SOL     OW 7246   3.667   0.747   3.180
 2416SOL    HW1 7247   3.729   0.686   3.141
 2416SOL    HW2 7248   3.582   0.705   3.171
 2417SOL     OW 7249   0.510   4.058   2.030
 2417SOL    HW1 7250   0.450   4.130   2.010
 2417SOL    HW2 7251   0.530   4.019   1.945
 2418SOL     OW 7252   4.284   2.959   2.427
 2418SOL    HW1 7253   4.324   3.041   2.401
 2418SOL    HW2 7254   4.285   2.906   2.347
 2419SOL     OW 7255   4.315   4.760   0.979
 2419SOL    HW1 7256   4.408   4.738   0.987
 2419SOL    HW2 7257   4.292   4.799   1.063
 2420SOL     OW 7258   0.283   0.812   0.532
 2420SOL    HW1 7259   0.286   0.805   0.627
 2420SOL    HW2 7260   0.211   0.873   0.514
 2421SOL     OW 7261   1.223   3.298   1.220
 2421SOL    HW1 7262   1.158   3.347   1.271
 2421SOL    HW2 7263   1.180   3.214   1.201
 2422SOL     OW 7264   1.927   3.936   4.486
 2422SOL    HW1 7265   1.930   4.005   4.553
 2422SOL    HW2 7266   1.879   3.865   4.528
 2423SOL     OW 7267   0.216   1.407   1.731
 2423SOL    HW1 7268   0.311   1.417   1.717
 2423SOL    HW2 7269   0.178   1.484   1.689
 2424SOL     OW 7270   3.882   2.400   3.062
 2424SOL    HW1 7271   3.863   2.401   2.968
 2424SOL    HW2 7272   3.977   2.412   3.067
 2425SOL     OW 7273   1.921   0.187   2.373
 2425SOL    HW1 7274   1.899   0.140   2.454
 2425SOL    HW2 7275   1.934   0.117   2.308
 2426SOL     OW 7276   0.492   0.356   1.957
 2426SOL    HW1 7277   0.554   0.289   1.988
 2426SOL    HW2 7278   0.509   0.362   1.863
 2427SOL     OW 7279   1.160   0.942   3.316
 2427SOL    HW1 7280   1.103   0.987   3.378
 2427SOL    HW2 7281   1.131   0.851   3.318
 2428SOL     OW 7282   0.663   1.996   4.819
 2428SOL    HW1 7283   0.638   2.065   4.880
 2428SOL    HW2 7284   0.752   2.019   4.792
 2429SOL     OW 7285   4.020   4.411   0.275
 2429SOL    HW1 7286   4.097   4.396   0.219
 2429SOL    HW2 7287   3.975   4.485   0.234
 2430SOL     OW 7288   1.277   3.742   1.812
 2430SOL    HW1 7289   1.335   3.818   1.812
 2430SOL    HW2 7290   1.316   3.683   1.747
 2431SOL     OW 7291   0.950   2.884   3.293
 2431SOL    HW1 7292   0.979   2.941   3.222
 2431SOL    HW2 7293   0.856   2.901   3.300
 2432SOL     OW 7294   4.520   1.344   4.042
 2432SOL    HW1 7295   4.467   1.290   3.983
 2432SOL    HW2 7296   4.610   1.321   4.021
 2433SOL     OW 7297   3.653   2.641   2.175
 2433SOL    HW1 7298   3.731   2.605   2.134
 2433SOL    HW2 7299   3.594   2.566   2.184
 2434SOL     OW 7300   1.153   1.837   2.028
 2434SOL    HW1 7301   1.077   1.798   2.072
 2434SOL    HW2 7302   1.168   1.920   2.074
 2435SOL     OW 7303   0.920   3.802   3.834
 2435SOL    HW1 7304   0.853   3.767   3.892
 2435SOL    HW2 7305   0.991   3.829   3.893
 2436SOL     OW 7306   2.675   0.455   3.702
 2436SOL    HW1 7307   2.584   0.442   3.677
 2436SOL    HW2 7308   2.725   0.396   3.645
 2437SOL     OW 7309   1.020   2.449   4.217
 2437SOL    HW1 7310   1.080   2.494   4.158
 2437SOL    HW2 7311   1.001   2.366   4.175
 2438SOL     OW 7312   3.609   2.192   4.897
 2438SOL    HW1 7313   3.659   2.215   4.975
 2438SOL    HW2 7314   3.603   2.273   4.847
 2439SOL     OW 7315   3.269   2.998   4.720
 2439SOL    HW1 7316   3.308   3.052   4.788
 2439SOL    HW2 7317   3.179   3.030   4.712
 2440SOL     OW 7318   0.689   4.206   5.018
 2440SOL    HW1 7319   0.702   4.296   4.990
 2440SOL    HW2 7320   0.724   4.203   5.107
 2441SOL     OW 7321   5.164   4.114   2.926
 2441SOL    HW1 7322   5.085   4.100   2.874
 2441SOL    HW2 7323   5.154   4.056   3.001
 2442SOL     OW 7324   0.991   3.886   0.303
 2442SOL    HW1 7325   0.909   3.922   0.337
 2442SOL    HW2 7326   1.056   3.953   0.322
 2443SOL     OW 7327   1.715   0.228   1.532
 2443SOL    HW1 7328   1.753   0.309   1.499
 2443SOL    HW2 7329   1.784   0.162   1.522
 2444SOL     OW 7330   3.068   3.381   3.604
 2444SOL    HW1 7331   3.026   3.316   3.660
 2444SOL    HW2 7332   2.996   3.435   3.571
 2445SOL     OW 7333   0.157   1.307   4.116
 2445SOL    HW1 7334   0.064   1.288   4.123
 2445SOL    HW2 7335   0.177   1.298   4.023
 2446SOL     OW 7336   1.670   2.316   3.260
 2446SOL    HW1 7337   1.760   2.338   3.238
 2446SOL    HW2 7338   1.648   2.371   3.335
 2447SOL     OW 7339   0.261   0.982   1.594
 2447SOL    HW1 7340   0.217   0.906   1.632
 2447SOL    HW2 7341   0.210   1.004   1.517
 2448SOL     OW 7342   4.693   2.628   0.840
 2448SOL    HW1 7343   4.673   2.703   0.783
 2448SOL    HW2 7344   4.765   2.583   0.797
 2449SOL     OW 7345   3.985   4.128   1.656
 2449SOL    HW1 7346   3.941   4.205   1.619
 2449SOL    HW2 7347   3.918   4.085   1.710
 2450SOL     OW 7348   0.907   4.577   2.452
 2450SOL    HW1 7349   0.952   4.603   2.372
 2450SOL    HW2 7350   0.872   4.659   2.487
 2451SOL     OW 7351   3.682   4.724   3.073
 2451SOL    HW1 7352   3.736   4.734   2.994
 2451SOL    HW2 7353   3.618   4.657   3.050
 2452SOL     OW 7354   2.980   4.382   2.792
 2452SOL    HW1 7355   2.915   4.445   2.761
 2452SOL    HW2 7356   3.031   4.429   2.857
 2453SOL     OW 7357   1.643   3.748   0.356
 2453SOL    HW1 7358   1.687   3.802   0.422
 2453SOL    HW2 7359   1.644   3.660   0.392
 2454SOL     OW 7360   0.669   2.280   3.228
 2454SOL    HW1 7361   0.585   2.265   3.182
 2454SOL    HW2 7362   0.651   2.254   3.318
 2455SOL     OW 7363   1.449   1.316   4.577
 2455SOL    HW1 7364   1.389   1.263   4.631
 2455SOL    HW2 7365   1.527   1.326   4.632
 2456SOL     OW 7366   3.353   2.403   4.221
 2456SOL    HW1 7367   3.273   2.420   4.271
 2456SOL    HW2 7368   3.340   2.316   4.183
 2457SOL     OW 7369   2.477   3.689   3.274
 2457SOL    HW1 7370   2.450   3.662   3.186
 2457SOL    HW2 7371   2.400   3.677   3.328
 2458SOL     OW 7372   2.813   1.349   1.193
 2458SOL    HW1 7373   2.836   1.442   1.196
 2458SOL    HW2 7374   2.895   1.305   1.171
 2459SOL     OW 7375   2.963   0.583   1.455
 2459SOL    HW1 7376   2.953   0.651   1.388
 2459SOL    HW2 7377   3.006   0.627   1.528
 2460SOL     OW 7378   3.765   3.917   2.589
 2460SOL    HW1 7379   3.726   3.830   2.591
 2460SOL    HW2 7380   3.763   3.946   2.680
 2461SOL     OW 7381   4.635   3.543   2.721
 2461SOL    HW1 7382   4.566   3.559   2.656
 2461SOL    HW2 7383   4.699   3.613   2.705
 2462SOL     OW 7384   0.148   4.198   4.593
 2462SOL    HW1 7385   0.094   4.150   4.530
 2462SOL    HW2 7386   0.111   4.286   4.595
 2463SOL     OW 7387   1.353   2.258   1.663
 2463SOL    HW1 7388   1.445   2.232   1.657
 2463SOL    HW2 7389   1.315   2.234   1.578
 2464SOL     OW 7390   4.982   0.329   2.485
 2464SOL    HW1 7391   5.032   0.272   2.544
 2464SOL    HW2 7392   4.987   0.415   2.525
 2465SOL     OW 7393   5.051   1.851   1.974
 2465SOL    HW1 7394   4.988   1.923   1.970
 2465SOL    HW2 7395   4.997   1.772   1.977
 2466SOL     OW 7396   0.398   3.207   3.055
 2466SOL    HW1 7397   0.451   3.206   2.975
 2466SOL    HW2 7398   0.449   3.259   3.117
 2467SOL     OW 7399   3.079   2.861   3.575
 2467SOL    HW1 7400   3.089   2.772   3.609
 2467SOL    HW2 7401   3.169   2.892   3.562
 2468SOL     OW 7402   1.943   2.929   0.048
 2468SOL    HW1 7403   1.928   3.011   0.096
 2468SOL    HW2 7404   2.019   2.948  -0.008
 2469SOL     OW 7405   2.124   1.163   2.248
 2469SOL    HW1 7406   2.083   1.222   2.185
 2469SOL    HW2 7407   2.213   1.152   2.215
 2470SOL     OW 7408   4.956   0.408   2.018
 2470SOL    HW1 7409   4.870   0.384   2.053
 2470SOL    HW2 7410   5.018   0.369   2.079
 2471SOL     OW 7411   1.187   2.805   0.781
 2471SOL    HW1 7412   1.262   2.845   0.738
 2471SOL    HW2 7413   1.143   2.756   0.712
 2472SOL     OW 7414   1.862   1.776   0.040
 2472SOL    HW1 7415   1.784   1.727   0.015
 2472SOL    HW2 7416   1.858   1.856  -0.012
 2473SOL     OW 7417   0.744   1.370   5.002
 2473SOL    HW1 7418   0.655   1.404   5.005
 2473SOL    HW2 7419   0.737   1.281   5.039
 2474SOL     OW 7420   1.603   4.596   0.352
 2474SOL    HW1 7421   1.647   4.511   0.343
 2474SOL    HW2 7422   1.675   4.658   0.366
 2475SOL     OW 7423   3.825   0.929   2.248
 2475SOL    HW1 7424   3.862   0.851   2.208
 2475SOL    HW2 7425   3.898   0.971   2.294
 2476SOL     OW 7426   2.798   3.357   4.438
 2476SOL    HW1 7427   2.887   3.321   4.448
 2476SOL    HW2 7428   2.750   3.322   4.513
 2477SOL     OW 7429   3.366   0.535   3.962
 2477SOL    HW1 7430   3.341   0.557   3.873
 2477SOL    HW2 7431   3.451   0.578   3.975
 2478SOL     OW 7432   4.911   3.004   1.363
 2478SOL    HW1 7433   4.940   2.923   1.321
 2478SOL    HW2 7434   4.952   3.003   1.449
 2479SOL     OW 7435   2.413   3.625   0.795
 2479SOL    HW1 7436   2.409   3.598   0.886
 2479SOL    HW2 7437   2.496   3.588   0.763
 2480SOL     OW 7438   2.423   4.537   1.020
 2480SOL    HW1 7439   2.440   4.584   0.938
 2480SOL    HW2 7440   2.507   4.537   1.065
 2481SOL     OW 7441   4.240   0.925   0.554
 2481SOL    HW1 7442   4.309   0.889   0.609
 2481SOL    HW2 7443   4.194   0.849   0.519
 2482SOL     OW 7444   2.871   4.938   3.218
 2482SOL    HW1 7445   2.819   4.935   3.299
 2482SOL    HW2 7446   2.808   4.919   3.149
 2483SOL     OW 7447   4.836   1.796   4.635
 2483SOL    HW1 7448   4.791   1.745   4.568
 2483SOL    HW2 7449   4.927   1.766   4.632
 2484SOL     OW 7450   0.670   2.996   1.717
 2484SOL    HW1 7451   0.711   3.021   1.799
 2484SOL    HW2 7452   0.649   3.080   1.675
 2485SOL     OW 7453   4.723   0.707   4.901
 2485SOL    HW1 7454   4.704   0.797   4.872
 2485SOL    HW2 7455   4.707   0.708   4.995
 2486SOL     OW 7456   1.480   1.471   2.180
 2486SOL    HW1 7457   1.386   1.486   2.185
 2486SOL    HW2 7458   1.511   1.478   2.271
 2487SOL     OW 7459   3.858   1.764   4.088
 2487SOL    HW1 7460   3.860   1.822   4.011
 2487SOL    HW2 7461   3.774   1.783   4.130
 2488SOL     OW 7462   2.689   4.635   4.179
 2488SOL    HW1 7463   2.700   4.624   4.085
 2488SOL    HW2 7464   2.770   4.599   4.217
 2489SOL     OW 7465   0.252   1.236   1.952
 2489SOL    HW1 7466   0.220   1.310   1.899
 2489SOL    HW2 7467   0.184   1.169   1.943
 2490SOL     OW 7468   2.903   0.723   2.753
 2490SOL    HW1 7469   2.987   0.679   2.764
 2490SOL    HW2 7470   2.880   0.709   2.661
 2491SOL     OW 7471   2.081   0.500   3.903
 2491SOL    HW1 7472   2.091   0.577   3.847
 2491SOL    HW2 7473   1.994   0.509   3.941
 2492SOL     OW 7474   1.043   2.925   3.552
 2492SOL    HW1 7475   1.027   2.900   3.461
 2492SOL    HW2 7476   1.090   3.008   3.546
 2493SOL     OW 7477   1.977   1.933   0.854
 2493SOL    HW1 7478   2.060   1.951   0.898
 2493SOL    HW2 7479   1.949   1.848   0.888
 2494SOL     OW 7480   0.829   0.539   2.349
 2494SOL    HW1 7481   0.860   0.501   2.431
 2494SOL    HW2 7482   0.740   0.567   2.368
 2495SOL     OW 7483   1.954   4.902   1.698
 2495SOL    HW1 7484   1.898   4.896   1.620
 2495SOL    HW2 7485   1.993   4.989   1.692
 2496SOL     OW 7486   1.067   3.500   2.981
 2496SOL    HW1 7487   1.070   3.560   3.055
 2496SOL    HW2 7488   1.003   3.539   2.921
 2497SOL     OW 7489   2.562   0.526   1.479
 2497SOL    HW1 7490   2.551   0.431   1.478
 2497SOL    HW2 7491   2.608   0.544   1.561
 2498SOL     OW 7492   2.989   3.597   4.406
 2498SOL    HW1 7493   2.965   3.636   4.490
 2498SOL    HW2 7494   3.058   3.534   4.428
 2499SOL     OW 7495   4.685   3.342   0.455
 2499SOL    HW1 7496   4.729   3.353   0.371
 2499SOL    HW2 7497   4.593   3.326   0.431
 2500SOL     OW 7498   0.640   2.242   3.986
 2500SOL    HW1 7499   0.636   2.214   3.895
 2500SOL    HW2 7500   0.683   2.170   4.031
 2501SOL     OW 7501   1.012   3.104   1.727
 2501SOL    HW1 7502   1.002   3.020   1.682
 2501SOL    HW2 7503   1.105   3.110   1.746
 2502SOL     OW 7504   2.422   1.932   4.220
 2502SOL    HW1 7505   2.347   1.880   4.192
 2502SOL    HW2 7506   2.446   1.982   4.142
 2503SOL     OW 7507   1.096   3.367   3.246
 2503SOL    HW1 7508   1.067   3.458   3.252
 2503SOL    HW2 7509   1.063   3.326   3.326
 2504SOL     OW 7510   1.138   2.057   2.162
 2504SOL    HW1 7511   1.112   2.119   2.094
 2504SOL    HW2 7512   1.186   2.111   2.225
 2505SOL     OW 7513   2.178   1.630   0.938
 2505SOL    HW1 7514   2.266   1.668   0.944
 2505SOL    HW2 7515   2.192   1.536   0.939
 2506SOL     OW 7516   3.135   2.057   3.799
 2506SOL    HW1 7517   3.145   1.969   3.762
 2506SOL    HW2 7518   3.041   2.075   3.794
 2507SOL     OW 7519   3.927   1.224   2.839
 2507SOL    HW1 7520   3.964   1.185   2.918
 2507SOL    HW2 7521   3.950   1.164   2.769
 2508SOL     OW 7522   4.141   3.560   4.487
 2508SOL    HW1 7523   4.237   3.558   4.479
 2508SOL    HW2 7524   4.111   3.490   4.430
 2509SOL     OW 7525   4.525   1.525   0.041
 2509SOL    HW1 7526   4.470   1.472   0.101
 2509SOL    HW2 7527   4.610   1.481   0.042
 2510SOL     OW 7528   5.072   4.469   0.847
 2510SOL    HW1 7529   5.012   4.492   0.776
 2510SOL    HW2 7530   5.154   4.446   0.803
 2511SOL     OW 7531   4.195   4.613   0.796
 2511SOL    HW1 7532   4.123   4.567   0.840
 2511SOL    HW2 7533   4.229   4.674   0.862
 2512SOL     OW 7534   1.250   0.410   4.805
 2512SOL    HW1 7535   1.297   0.456   4.874
 2512SOL    HW2 7536   1.195   0.478   4.765
 2513SOL     OW 7537   4.484   4.078   1.455
 2513SOL    HW1 7538   4.482   3.985   1.479
 2513SOL    HW2 7539   4.398   4.111   1.481
 2514SOL     OW 7540   4.580   1.142   1.994
 2514SOL    HW1 7541   4.488   1.144   1.969
 2514SOL    HW2 7542   4.628   1.167   1.915
 2515SOL     OW 7543   1.642   2.357   1.297
 2515SOL    HW1 7544   1.608   2.334   1.383
 2515SOL    HW2 7545   1.717   2.298   1.285
 2516SOL     OW 7546   0.739   0.225   2.105
 2516SOL    HW1 7547   0.758   0.164   2.176
 2516SOL    HW2 7548   0.726   0.170   2.028
 2517SOL     OW 7549   3.109   2.680   4.840
 2517SOL    HW1 7550   3.160   2.599   4.831
 2517SOL    HW2 7551   3.110   2.719   4.752
 2518SOL     OW 7552   3.651   1.140   2.847
 2518SOL    HW1 7553   3.723   1.156   2.786
 2518SOL    HW2 7554   3.607   1.225   2.854
 2519SOL     OW 7555   2.263   2.801   0.259
 2519SOL    HW1 7556   2.183   2.791   0.208
 2519SOL    HW2 7557   2.310   2.718   0.246
 2520SOL     OW 7558   5.169   4.400   2.155
 2520SOL    HW1 7559   5.075   4.410   2.168
 2520SOL    HW2 7560   5.187   4.308   2.174
 2521SOL     OW 7561   4.171   0.063   0.955
 2521SOL    HW1 7562   4.148   0.114   0.877
 2521SOL    HW2 7563   4.124  -0.020   0.944
 2522SOL     OW 7564   3.071   4.927   1.838
 2522SOL    HW1 7565   3.067   4.943   1.932
 2522SOL    HW2 7566   3.084   4.832   1.830
 2523SOL     OW 7567   4.337   0.178   4.022
 2523SOL    HW1 7568   4.399   0.249   4.005
 2523SOL    HW2 7569   4.264   0.196   3.962
 2524SOL     OW 7570   2.334   3.315   4.719
 2524SOL    HW1 7571   2.374   3.402   4.732
 2524SOL    HW2 7572   2.252   3.333   4.674
 2525SOL     OW 7573   0.041   3.149   4.565
 2525SOL    HW1 7574   0.129   3.142   4.528
 2525SOL    HW2 7575   0.001   3.063   4.550
 2526SOL     OW 7576   0.193   2.677   4.219
 2526SOL    HW1 7577   0.128   2.710   4.282
 2526SOL    HW2 7578   0.175   2.583   4.214
 2527SOL     OW 7579   2.231   1.459   2.437
 2527SOL    HW1 7580   2.143   1.433   2.409
 2527SOL    HW2 7581   2.217   1.533   2.496
 2528SOL     OW 7582   0.827   0.422   1.668
 2528SOL    HW1 7583   0.905   0.373   1.693
 2528SOL    HW2 7584   0.763   0.355   1.642
 2529SOL     OW 7585   2.621   1.762   2.636
 2529SOL    HW1 7586   2.559   1.688   2.635
 2529SOL    HW2 7587   2.689   1.736   2.574
 2530SOL     OW 7588   2.525   1.794   1.974
 2530SOL    HW1 7589   2.528   1.698   1.980
 2530SOL    HW2 7590   2.583   1.815   1.901
 2531SOL     OW 7591   4.428   1.611   2.521
 2531SOL    HW1 7592   4.343   1.568   2.530
 2531SOL    HW2 7593   4.407   1.703   2.507
 2532SOL     OW 7594   4.963   1.875   3.255
 2532SOL    HW1 7595   4.933   1.922   3.333
 2532SOL    HW2 7596   4.887   1.825   3.227
 2533SOL     OW 7597   2.818   4.939   2.001
 2533SOL    HW1 7598   2.752   4.948   2.070
 2533SOL    HW2 7599   2.772   4.964   1.920
 2534SOL     OW 7600   1.247   2.693   1.463
 2534SOL    HW1 7601   1.201   2.622   1.418
 2534SOL    HW2 7602   1.266   2.659   1.550
 2535SOL     OW 7603   1.623   4.493   2.261
 2535SOL    HW1 7604   1.567   4.478   2.185
 2535SOL    HW2 7605   1.605   4.419   2.318
 2536SOL     OW 7606   4.321   0.879   3.423
 2536SOL    HW1 7607   4.357   0.862   3.335
 2536SOL    HW2 7608   4.301   0.793   3.458
 2537SOL     OW 7609   2.460   2.681   3.346
 2537SOL    HW1 7610   2.372   2.648   3.365
 2537SOL    HW2 7611   2.497   2.619   3.283
 2538SOL     OW 7612   0.051   0.834   2.316
 2538SOL    HW1 7613  -0.042   0.813   2.313
 2538SOL    HW2 7614   0.091   0.759   2.360
 2539SOL     OW 7615   0.090   2.488   2.734
 2539SOL    HW1 7616   0.085   2.550   2.806
 2539SOL    HW2 7617   0.107   2.404   2.777
 2540SOL     OW 7618   3.572   3.645   0.228
 2540SOL    HW1 7619   3.528   3.585   0.288
 2540SOL    HW2 7620   3.517   3.644   0.149
 2541SOL     OW 7621   1.354   1.154   2.789
 2541SOL    HW1 7622   1.363   1.060   2.800
 2541SOL    HW2 7623   1.285   1.165   2.724
 2542SOL     OW 7624   4.608   3.975   3.937
 2542SOL    HW1 7625   4.598   4.006   4.027
 2542SOL    HW2 7626   4.703   3.973   3.923
 2543SOL     OW 7627   4.512   2.298   0.436
 2543SOL    HW1 7628   4.483   2.383   0.469
 2543SOL    HW2 7629   4.463   2.234   0.487
 2544SOL     OW 7630   4.565   3.291   3.834
 2544SOL    HW1 7631   4.624   3.288   3.909
 2544SOL    HW2 7632   4.623   3.303   3.759
 2545SOL     OW 7633   5.025   0.673   1.169
 2545SOL    HW1 7634   4.977   0.753   1.191
 2545SOL    HW2 7635   5.095   0.702   1.110
 2546SOL     OW 7636   1.603   3.831   2.782
 2546SOL    HW1 7637   1.524   3.778   2.774
 2546SOL    HW2 7638   1.658   3.804   2.708
 2547SOL     OW 7639   2.015   0.874   0.102
 2547SOL    HW1 7640   1.923   0.900   0.090
 2547SOL    HW2 7641   2.025   0.797   0.046
 2548SOL     OW 7642   4.685   3.164   4.923
 2548SOL    HW1 7643   4.768   3.209   4.905
 2548SOL    HW2 7644   4.619   3.233   4.917
 2549SOL     OW 7645   5.148   0.764   5.099
 2549SOL    HW1 7646   5.182   0.678   5.122
 2549SOL    HW2 7647   5.078   0.780   5.163
 2550SOL     OW 7648   0.152   2.428   0.669
 2550SOL    HW1 7649   0.123   2.518   0.652
 2550SOL    HW2 7650   0.248   2.434   0.671
 2551SOL     OW 7651   4.282   1.944   3.968
 2551SOL    HW1 7652   4.341   1.870   3.980
 2551SOL    HW2 7653   4.241   1.956   4.053
 2552SOL     OW 7654   2.635   5.060   2.193
 2552SOL    HW1 7655   2.622   5.041   2.286
 2552SOL    HW2 7656   2.623   5.155   2.187
 2553SOL     OW 7657   0.685   1.102   5.063
 2553SOL    HW1 7658   0.730   1.021   5.087
 2553SOL    HW2 7659   0.593   1.077   5.054
 2554SOL     OW 7660   3.064   0.261   4.799
 2554SOL    HW1 7661   3.112   0.318   4.739
 2554SOL    HW2 7662   2.993   0.316   4.832
 2555SOL     OW 7663   4.754   2.635   1.117
 2555SOL    HW1 7664   4.737   2.687   1.038
 2555SOL    HW2 7665   4.667   2.614   1.151
 2556SOL     OW 7666   3.184   1.463   2.255
 2556SOL    HW1 7667   3.205   1.547   2.215
 2556SOL    HW2 7668   3.165   1.406   2.181
 2557SOL     OW 7669   3.294   2.677   1.233
 2557SOL    HW1 7670   3.351   2.741   1.275
 2557SOL    HW2 7671   3.291   2.703   1.141
 2558SOL     OW 7672   3.906   4.729   0.639
 2558SOL    HW1 7673   4.001   4.720   0.630
 2558SOL    HW2 7674   3.881   4.658   0.698
 2559SOL     OW 7675   0.858   1.967   0.735
 2559SOL    HW1 7676   0.925   1.904   0.709
 2559SOL    HW2 7677   0.837   2.014   0.653
 2560SOL     OW 7678   4.919   1.535   2.266
 2560SOL    HW1 7679   4.981   1.478   2.311
 2560SOL    HW2 7680   4.835   1.517   2.308
 2561SOL     OW 7681   2.435   1.964   3.476
 2561SOL    HW1 7682   2.354   1.965   3.527
 2561SOL    HW2 7683   2.469   2.053   3.483
 2562SOL     OW 7684   4.748   1.097   2.615
 2562SOL    HW1 7685   4.811   1.142   2.671
 2562SOL    HW2 7686   4.777   1.114   2.526
 2563SOL     OW 7687   2.325   3.916   1.793
 2563SOL    HW1 7688   2.256   3.878   1.739
 2563SOL    HW2 7689   2.317   3.871   1.877
 2564SOL     OW 7690   0.084   4.344   3.009
 2564SOL    HW1 7691   0.120   4.391   2.933
 2564SOL    HW2 7692   0.043   4.266   2.971
 2565SOL     OW 7693   4.234   4.307   1.205
 2565SOL    HW1 7694   4.322   4.330   1.234
 2565SOL    HW2 7695   4.226   4.213   1.221
 2566SOL     OW 7696   1.009   1.340   2.786
 2566SOL    HW1 7697   1.009   1.392   2.867
 2566SOL    HW2 7698   1.077   1.274   2.800
 2567SOL     OW 7699   3.245   2.934   2.803
 2567SOL    HW1 7700   3.220   2.857   2.854
 2567SOL    HW2 7701   3.257   2.901   2.714
 2568SOL     OW 7702   1.114   0.442   2.256
 2568SOL    HW1 7703   1.125   0.495   2.335
 2568SOL    HW2 7704   1.026   0.463   2.225
 2569SOL     OW 7705   5.106   0.640   4.714
 2569SOL    HW1 7706   5.028   0.691   4.692
 2569SOL    HW2 7707   5.090   0.608   4.802
 2570SOL     OW 7708   0.712   4.040   2.946
 2570SOL    HW1 7709   0.638   3.986   2.975
 2570SOL    HW2 7710   0.693   4.127   2.982
 2571SOL     OW 7711   5.177   2.476   2.208
 2571SOL    HW1 7712   5.123   2.556   2.206
 2571SOL    HW2 7713   5.204   2.468   2.299
 2572SOL     OW 7714   4.773   1.218   4.052
 2572SOL    HW1 7715   4.836   1.222   3.981
 2572SOL    HW2 7716   4.756   1.125   4.064
 2573SOL     OW 7717   3.428   1.329   0.779
 2573SOL    HW1 7718   3.443   1.361   0.690
 2573SOL    HW2 7719   3.516   1.325   0.818
 2574SOL     OW 7720   3.819   2.654   3.257
 2574SOL    HW1 7721   3.858   2.741   3.263
 2574SOL    HW2 7722   3.777   2.652   3.171
 2575SOL     OW 7723   3.269   2.597   2.735
 2575SOL    HW1 7724   3.316   2.615   2.654
 2575SOL    HW2 7725   3.215   2.520   2.716
 2576SOL     OW 7726   1.457   0.885   2.838
 2576SOL    HW1 7727   1.545   0.921   2.829
 2576SOL    HW2 7728   1.455   0.847   2.926
 2577SOL     OW 7729  -0.001   4.180   3.360
 2577SOL    HW1 7730   0.078   4.215   3.320
 2577SOL    HW2 7731   0.019   4.088   3.376
 2578SOL     OW 7732   2.980   2.032   2.285
 2578SOL    HW1 7733   2.902   1.980   2.265
 2578SOL    HW2 7734   2.961   2.075   2.368
 2579SOL     OW 7735   0.841   2.956   1.115
 2579SOL    HW1 7736   0.830   3.027   1.052
 2579SOL    HW2 7737   0.838   2.876   1.061
 2580SOL     OW 7738   4.004   2.752   2.057
 2580SOL    HW1 7739   3.987   2.767   1.964
 2580SOL    HW2 7740   3.988   2.658   2.070
 2581SOL     OW 7741   2.258   3.267   3.044
 2581SOL    HW1 7742   2.175   3.226   3.067
 2581SOL    HW2 7743   2.311   3.195   3.008
 2582SOL     OW 7744   4.673   4.564   1.760
 2582SOL    HW1 7745   4.587   4.564   1.803
 2582SOL    HW2 7746   4.736   4.559   1.832
 2583SOL     OW 7747   2.798   1.766   0.766
 2583SOL    HW1 7748   2.755   1.827   0.707
 2583SOL    HW2 7749   2.822   1.692   0.710
 2584SOL     OW 7750   3.097   1.175   0.875
 2584SOL    HW1 7751   3.041   1.113   0.829
 2584SOL    HW2 7752   3.068   1.172   0.966
 2585SOL     OW 7753   1.407   4.861   2.851
 2585SOL    HW1 7754   1.325   4.895   2.817
 2585SOL    HW2 7755   1.401   4.766   2.838
 2586SOL     OW 7756   2.035   0.642   3.503
 2586SOL    HW1 7757   2.121   0.623   3.465
 2586SOL    HW2 7758   2.049   0.719   3.557
 2587SOL     OW 7759   1.346   1.059   3.513
 2587SOL    HW1 7760   1.347   0.991   3.446
 2587SOL    HW2 7761   1.259   1.098   3.507
 2588SOL     OW 7762   2.945   4.102   0.632
 2588SOL    HW1 7763   2.991   4.069   0.556
 2588SOL    HW2 7764   2.898   4.179   0.600
 2589SOL     OW 7765   3.391   1.862   3.916
 2589SOL    HW1 7766   3.449   1.787   3.899
 2589SOL    HW2 7767   3.353   1.882   3.830
 2590SOL     OW 7768   3.390   2.214   1.969
 2590SOL    HW1 7769   3.336   2.142   1.999
 2590SOL    HW2 7770   3.344   2.293   1.999
 2591SOL     OW 7771   0.628   2.908   0.216
 2591SOL    HW1 7772   0.534   2.917   0.231
 2591SOL    HW2 7773   0.637   2.824   0.171
 2592SOL     OW 7774   0.120   2.479   1.539
 2592SOL    HW1 7775   0.133   2.574   1.547
 2592SOL    HW2 7776   0.049   2.470   1.475
 2593SOL     OW 7777   3.583   2.227   0.394
 2593SOL    HW1 7778   3.644   2.218   0.322
 2593SOL    HW2 7779   3.593   2.317   0.423
 2594SOL     OW 7780   1.458   4.064   1.541
 2594SOL    HW1 7781   1.386   4.127   1.540
 2594SOL    HW2 7782   1.462   4.030   1.452
 2595SOL     OW 7783   2.524   4.035   4.287
 2595SOL    HW1 7784   2.604   4.060   4.241
 2595SOL    HW2 7785   2.495   3.955   4.243
 2596SOL     OW 7786   2.915   4.950   1.388
 2596SOL    HW1 7787   2.980   4.990   1.330
 2596SOL    HW2 7788   2.865   4.891   1.331
 2597SOL     OW 7789   3.458   4.243   2.422
 2597SOL    HW1 7790   3.478   4.203   2.506
 2597SOL    HW2 7791   3.449   4.337   2.441
 2598SOL     OW 7792   4.423   3.344   1.262
 2598SOL    HW1 7793   4.503   3.346   1.209
 2598SOL    HW2 7794   4.390   3.434   1.259
 2599SOL     OW 7795   3.992   3.802   4.514
 2599SOL    HW1 7796   4.062   3.739   4.496
 2599SOL    HW2 7797   3.927   3.785   4.446
 2600SOL     OW 7798   1.808   1.573   1.002
 2600SOL    HW1 7799   1.812   1.608   0.913
 2600SOL    HW2 7800   1.870   1.501   1.003
 2601SOL     OW 7801   5.228   1.077   1.950
 2601SOL    HW1 7802   5.166   1.117   1.888
 2601SOL    HW2 7803   5.188   1.089   2.036
 2602SOL     OW 7804   3.302   0.181   2.279
 2602SOL    HW1 7805   3.284   0.244   2.350
 2602SOL    HW2 7806   3.327   0.101   2.325
 2603SOL     OW 7807   4.702   0.090   3.900
 2603SOL    HW1 7808   4.616   0.063   3.868
 2603SOL    HW2 7809   4.753   0.106   3.821
 2604SOL     OW 7810   2.065   4.352   5.065
 2604SOL    HW1 7811   2.122   4.275   5.072
 2604SOL    HW2 7812   1.981   4.323   5.100
 2605SOL     OW 7813   3.373   0.728   3.213
 2605SOL    HW1 7814   3.352   0.773   3.294
 2605SOL    HW2 7815   3.421   0.650   3.240
 2606SOL     OW 7816   4.107   1.411   0.550
 2606SOL    HW1 7817   4.182   1.354   0.537
 2606SOL    HW2 7818   4.071   1.385   0.635
 2607SOL     OW 7819   1.735   5.121   0.948
 2607SOL    HW1 7820   1.737   5.167   1.032
 2607SOL    HW2 7821   1.823   5.085   0.938
 2608SOL     OW 7822   0.066   4.060   2.653
 2608SOL    HW1 7823   0.094   4.032   2.740
 2608SOL    HW2 7824   0.025   4.145   2.667
 2609SOL     OW 7825   0.970   4.587   0.937
 2609SOL    HW1 7826   0.936   4.657   0.992
 2609SOL    HW2 7827   0.902   4.571   0.871
 2610SOL     OW 7828   2.674   2.202   2.925
 2610SOL    HW1 7829   2.599   2.185   2.981
 2610SOL    HW2 7830   2.661   2.145   2.849
 2611SOL     OW 7831   2.874   0.717   4.513
 2611SOL    HW1 7832   2.947   0.765   4.475
 2611SOL    HW2 7833   2.812   0.707   4.441
 2612SOL     OW 7834   3.506   5.095   0.103
 2612SOL    HW1 7835   3.449   5.157   0.149
 2612SOL    HW2 7836   3.539   5.144   0.028
 2613SOL     OW 7837   3.590   3.031   3.285
 2613SOL    HW1 7838   3.567   3.057   3.196
 2613SOL    HW2 7839   3.666   2.973   3.273
 2614SOL     OW 7840   2.267   0.254   2.206
 2614SOL    HW1 7841   2.255   0.244   2.301
 2614SOL    HW2 7842   2.191   0.212   2.168
 2615SOL     OW 7843   3.461   0.959   1.549
 2615SOL    HW1 7844   3.466   0.984   1.456
 2615SOL    HW2 7845   3.547   0.922   1.568
 2616SOL     OW 7846   4.626   4.522   2.486
 2616SOL    HW1 7847   4.610   4.616   2.499
 2616SOL    HW2 7848   4.721   4.515   2.478
 2617SOL     OW 7849   3.510   1.504   5.145
 2617SOL    HW1 7850   3.452   1.504   5.069
 2617SOL    HW2 7851   3.557   1.421   5.140
 2618SOL     OW 7852   3.243   2.045   4.813
 2618SOL    HW1 7853   3.231   2.042   4.908
 2618SOL    HW2 7854   3.167   1.999   4.778
 2619SOL     OW 7855   4.505   4.341   1.256
 2619SOL    HW1 7856   4.582   4.285   1.267
 2619SOL    HW2 7857   4.504   4.395   1.335
 2620SOL     OW 7858   2.482   1.464   4.740
 2620SOL    HW1 7859   2.525   1.378   4.743
 2620SOL    HW2 7860   2.402   1.452   4.792
 2621SOL     OW 7861   3.233   2.425   1.555
 2621SOL    HW1 7862   3.266   2.368   1.624
 2621SOL    HW2 7863   3.305   2.431   1.493
 2622SOL     OW 7864   4.963   3.113   3.897
 2622SOL    HW1 7865   4.875   3.147   3.881
 2622SOL    HW2 7866   4.965   3.029   3.851
 2623SOL     OW 7867   2.976   1.853   0.936
 2623SOL    HW1 7868   2.929   1.816   0.861
 2623SOL    HW2 7869   3.018   1.778   0.978
 2624SOL     OW 7870   2.392   4.247   0.686
 2624SOL    HW1 7871   2.402   4.268   0.779
 2624SOL    HW2 7872   2.466   4.190   0.666
 2625SOL     OW 7873   2.259   1.675   2.873
 2625SOL    HW1 7874   2.236   1.656   2.964
 2625SOL    HW2 7875   2.305   1.758   2.877
 2626SOL     OW 7876   1.665   5.168   3.995
 2626SOL    HW1 7877   1.748   5.121   3.986
 2626SOL    HW2 7878   1.627   5.167   3.908
 2627SOL     OW 7879   3.781   4.095   3.266
 2627SOL    HW1 7880   3.714   4.101   3.334
 2627SOL    HW2 7881   3.762   4.014   3.220
 2628SOL     OW 7882   0.410   3.446   1.279
 2628SOL    HW1 7883   0.334   3.408   1.324
 2628SOL    HW2 7884   0.472   3.374   1.271
 2629SOL     OW 7885   3.195   0.995   2.275
 2629SOL    HW1 7886   3.246   0.971   2.197
 2629SOL    HW2 7887   3.230   1.081   2.300
 2630SOL     OW 7888   1.539   1.160   3.692
 2630SOL    HW1 7889   1.473   1.108   3.646
 2630SOL    HW2 7890   1.622   1.119   3.670
 2631SOL     OW 7891   4.315   2.103   2.048
 2631SOL    HW1 7892   4.321   2.033   1.983
 2631SOL    HW2 7893   4.281   2.060   2.126
 2632SOL     OW 7894   4.351   3.820   4.372
 2632SOL    HW1 7895   4.340   3.777   4.457
 2632SOL    HW2 7896   4.408   3.761   4.322
 2633SOL     OW 7897   5.099   0.102   0.597
 2633SOL    HW1 7898   5.011   0.089   0.563
 2633SOL    HW2 7899   5.126   0.187   0.563
 2634SOL     OW 7900   1.857   1.852   2.103
 2634SOL    HW1 7901   1.830   1.941   2.130
 2634SOL    HW2 7902   1.780   1.798   2.123
 2635SOL     OW 7903   4.806   2.729   4.051
 2635SOL    HW1 7904   4.819   2.724   4.146
 2635SOL    HW2 7905   4.735   2.792   4.040
 2636SOL     OW 7906   3.734   3.862   4.659
 2636SOL    HW1 7907   3.822   3.841   4.627
 2636SOL    HW2 7908   3.741   3.859   4.754
 2637SOL     OW 7909   0.136   1.707   2.625
 2637SOL    HW1 7910   0.072   1.635   2.630
 2637SOL    HW2 7911   0.118   1.748   2.540
 2638SOL     OW 7912   3.874   0.447   0.397
 2638SOL    HW1 7913   3.964   0.416   0.412
 2638SOL    HW2 7914   3.881   0.502   0.319
 2639SOL     OW 7915   3.281   1.984   2.300
 2639SOL    HW1 7916   3.193   2.008   2.272
 2639SOL    HW2 7917   3.296   2.035   2.380
 2640SOL     OW 7918   4.483   3.646   3.532
 2640SOL    HW1 7919   4.505   3.684   3.447
 2640SOL    HW2 7920   4.388   3.638   3.531
 2641SOL     OW 7921   3.765   2.504   1.829
 2641SOL    HW1 7922   3.798   2.589   1.799
 2641SOL    HW2 7923   3.802   2.494   1.917
 2642SOL     OW 7924   1.410   0.329   1.905
 2642SOL    HW1 7925   1.416   0.376   1.988
 2642SOL    HW2 7926   1.429   0.395   1.838
 2643SOL     OW 7927   4.904   4.431   2.527
 2643SOL    HW1 7928   4.901   4.414   2.621
 2643SOL    HW2 7929   4.971   4.371   2.494
 2644SOL     OW 7930   2.634   4.185   2.550
 2644SOL    HW1 7931   2.728   4.203   2.561
 2644SOL    HW2 7932   2.630   4.126   2.475
 2645SOL     OW 7933   2.618   3.168   0.570
 2645SOL    HW1 7934   2.681   3.182   0.642
 2645SOL    HW2 7935   2.670   3.127   0.501
 2646SOL     OW 7936   2.161   2.121   3.909
 2646SOL    HW1 7937   2.206   2.182   3.967
 2646SOL    HW2 7938   2.109   2.176   3.852
 2647SOL     OW 7939   4.116   0.762   2.140
 2647SOL    HW1 7940   4.167   0.774   2.220
 2647SOL    HW2 7941   4.147   0.680   2.103
 2648SOL     OW 7942   4.251   2.116   0.183
 2648SOL    HW1 7943   4.207   2.201   0.195
 2648SOL    HW2 7944   4.246   2.075   0.269
 2649SOL     OW 7945   0.304   4.395   2.266
 2649SOL    HW1 7946   0.360   4.322   2.292
 2649SOL    HW2 7947   0.220   4.376   2.307
 2650SOL     OW 7948   2.379   2.562   0.280
 2650SOL    HW1 7949   2.365   2.533   0.370
 2650SOL    HW2 7950   2.469   2.538   0.260
 2651SOL     OW 7951   5.117   2.064   2.579
 2651SOL    HW1 7952   5.053   2.038   2.513
 2651SOL    HW2 7953   5.104   2.002   2.651
 2652SOL     OW 7954   1.101   2.745   1.835
 2652SOL    HW1 7955   1.024   2.776   1.883
 2652SOL    HW2 7956   1.098   2.650   1.843
 2653SOL     OW 7957   4.422   3.629   1.807
 2653SOL    HW1 7958   4.393   3.562   1.869
 2653SOL    HW2 7959   4.354   3.695   1.809
 2654SOL     OW 7960   3.023   4.139   2.981
 2654SOL    HW1 7961   3.012   4.220   2.930
 2654SOL    HW2 7962   3.037   4.071   2.915
 2655SOL     OW 7963   1.640   1.682   2.078
 2655SOL    HW1 7964   1.570   1.617   2.084
 2655SOL    HW2 7965   1.607   1.746   2.014
 2656SOL     OW 7966   0.525   3.632   0.131
 2656SOL    HW1 7967   0.457   3.588   0.182
 2656SOL    HW2 7968   0.484   3.652   0.047
 2657SOL     OW 7969   0.593   4.470   4.957
 2657SOL    HW1 7970   0.546   4.394   4.922
 2657SOL    HW2 7971   0.596   4.531   4.884
 2658SOL     OW 7972   0.811   0.504   2.085
 2658SOL    HW1 7973   0.743   0.439   2.065
 2658SOL    HW2 7974   0.798   0.523   2.178
 2659SOL     OW 7975   3.082   0.440   0.057
 2659SOL    HW1 7976   3.168   0.409   0.029
 2659SOL    HW2 7977   3.038   0.465  -0.024
 2660SOL     OW 7978   0.134   4.165   1.267
 2660SOL    HW1 7979   0.141   4.124   1.354
 2660SOL    HW2 7980   0.045   4.145   1.239
 2661SOL     OW 7981   2.949   1.555   0.362
 2661SOL    HW1 7982   2.969   1.472   0.319
 2661SOL    HW2 7983   3.029   1.578   0.409
 2662SOL     OW 7984   1.996   5.030   0.863
 2662SOL    HW1 7985   2.032   4.944   0.884
 2662SOL    HW2 7986   2.056   5.092   0.905
 2663SOL     OW 7987   0.148   0.130   1.708
 2663SOL    HW1 7988   0.186   0.157   1.792
 2663SOL    HW2 7989   0.132   0.213   1.662
 2664SOL     OW 7990   4.627   4.492   3.574
 2664SOL    HW1 7991   4.583   4.409   3.555
 2664SOL    HW2 7992   4.570   4.558   3.535
 2665SOL     OW 7993   3.127   2.604   3.625
 2665SOL    HW1 7994   3.078   2.526   3.650
 2665SOL    HW2 7995   3.213   2.593   3.665
 2666SOL     OW 7996   0.792   4.737   0.566
 2666SOL    HW1 7997   0.804   4.820   0.611
 2666SOL    HW2 7998   0.878   4.695   0.569
 2667SOL     OW 7999   4.869   4.057   1.935
 2667SOL    HW1 8000   4.914   4.011   1.865
 2667SOL    HW2 8001   4.815   4.123   1.890
 2668SOL     OW 8002   3.661   3.295   1.673
 2668SOL    HW1 8003   3.683   3.272   1.583
 2668SOL    HW2 8004   3.566   3.299   1.675
 2669SOL     OW 8005   1.770   2.082   1.847
 2669SOL    HW1 8006   1.858   2.072   1.812
 2669SOL    HW2 8007   1.769   2.168   1.887
 2670SOL     OW 8008   2.677   3.886   3.352
 2670SOL    HW1 8009   2.634   3.817   3.302
 2670SOL    HW2 8010   2.621   3.899   3.429
 2671SOL     OW 8011   0.082   1.119   3.088
 2671SOL    HW1 8012  -0.009   1.097   3.069
 2671SOL    HW2 8013   0.076   1.195   3.145
 2672SOL     OW 8014   1.969   0.594   3.188
 2672SOL    HW1 8015   1.899   0.533   3.212
 2672SOL    HW2 8016   2.050   0.547   3.208
 2673SOL     OW 8017   2.450   0.572   0.578
 2673SOL    HW1 8018   2.399   0.492   0.569
 2673SOL    HW2 8019   2.387   0.643   0.567
 2674SOL     OW 8020   0.915   3.780   0.057
 2674SOL    HW1 8021   0.898   3.857   0.002
 2674SOL    HW2 8022   0.939   3.816   0.142
 2675SOL     OW 8023   3.838   2.989   4.884
 2675SOL    HW1 8024   3.873   3.032   4.806
 2675SOL    HW2 8025   3.776   2.924   4.850
 2676SOL     OW 8026   3.199   2.146   2.558
 2676SOL    HW1 8027   3.224   2.186   2.641
 2676SOL    HW2 8028   3.129   2.084   2.582
 2677SOL     OW 8029   2.248   2.175   1.650
 2677SOL    HW1 8030   2.285   2.096   1.688
 2677SOL    HW2 8031   2.184   2.144   1.585
 2678SOL     OW 8032   0.500   0.114   0.085
 2678SOL    HW1 8033   0.446   0.140   0.160
 2678SOL    HW2 8034   0.577   0.073   0.123
 2679SOL     OW 8035   1.988   2.419   4.624
 2679SOL    HW1 8036   2.077   2.438   4.655
 2679SOL    HW2 8037   1.964   2.495   4.571
 2680SOL     OW 8038   1.359   4.806   3.157
 2680SOL    HW1 8039   1.389   4.832   3.070
 2680SOL    HW2 8040   1.350   4.711   3.152
 2681SOL     OW 8041   1.885   2.334   3.588
 2681SOL    HW1 8042   1.805   2.310   3.541
 2681SOL    HW2 8043   1.909   2.420   3.552
 2682SOL     OW 8044   5.030   2.179   3.302
 2682SOL    HW1 8045   4.935   2.182   3.290
 2682SOL    HW2 8046   5.065   2.224   3.225
 2683SOL     OW 8047   0.154   1.585   3.760
 2683SOL    HW1 8048   0.132   1.625   3.845
 2683SOL    HW2 8049   0.119   1.496   3.766
 2684SOL     OW 8050   4.587   5.119   2.018
 2684SOL    HW1 8051   4.640   5.152   1.945
 2684SOL    HW2 8052   4.603   5.182   2.089
 2685SOL     OW 8053   1.052   1.353   1.198
 2685SOL    HW1 8054   1.061   1.361   1.103
 2685SOL    HW2 8055   1.119   1.290   1.223
 2686SOL     OW 8056   3.762   2.284   1.205
 2686SOL    HW1 8057   3.758   2.236   1.288
 2686SOL    HW2 8058   3.693   2.244   1.151
 2687SOL     OW 8059   1.566   3.755   1.335
 2687SOL    HW1 8060   1.564   3.850   1.330
 2687SOL    HW2 8061   1.564   3.736   1.429
 2688SOL     OW 8062   2.808   4.686   0.182
 2688SOL    HW1 8063   2.873   4.621   0.208
 2688SOL    HW2 8064   2.724   4.650   0.212
 2689SOL     OW 8065   1.468   3.713   4.886
 2689SOL    HW1 8066   1.379   3.694   4.915
 2689SOL    HW2 8067   1.512   3.747   4.965
 2690SOL     OW 8068   1.482   4.879   2.457
 2690SOL    HW1 8069   1.552   4.817   2.438
 2690SOL    HW2 8070   1.415   4.827   2.502
 2691SOL     OW 8071   4.481   4.730   4.885
 2691SOL    HW1 8072   4.487   4.748   4.979
 2691SOL    HW2 8073   4.405   4.781   4.855
 2692SOL     OW 8074   3.704   0.891   0.151
 2692SOL    HW1 8075   3.734   0.916   0.063
 2692SOL    HW2 8076   3.719   0.970   0.204
 2693SOL     OW 8077   2.669   3.228   3.815
 2693SOL    HW1 8078   2.742   3.217   3.876
 2693SOL    HW2 8079   2.612   3.293   3.857
 2694SOL     OW 8080   5.103   3.458   0.581
 2694SOL    HW1 8081   5.067   3.494   0.662
 2694SOL    HW2 8082   5.136   3.372   0.606
 2695SOL     OW 8083   4.898   0.306   1.321
 2695SOL    HW1 8084   4.902   0.215   1.290
 2695SOL    HW2 8085   4.900   0.298   1.417
 2696SOL     OW 8086   3.410   3.716   1.319
 2696SOL    HW1 8087   3.436   3.774   1.247
 2696SOL    HW2 8088   3.419   3.628   1.283
 2697SOL     OW 8089   3.535   3.841   0.755
 2697SOL    HW1 8090   3.551   3.835   0.660
 2697SOL    HW2 8091   3.503   3.754   0.779
 2698SOL     OW 8092   3.050   1.279   1.422
 2698SOL    HW1 8093   3.139   1.300   1.449
 2698SOL    HW2 8094   3.035   1.190   1.453
 2699SOL     OW 8095   0.546   3.926   3.623
 2699SOL    HW1 8096   0.533   3.979   3.701
 2699SOL    HW2 8097   0.530   3.836   3.652
 2700SOL     OW 8098   3.841   2.925   1.670
 2700SOL    HW1 8099   3.758   2.971   1.666
 2700SOL    HW2 8100   3.892   2.972   1.736
 2701SOL     OW 8101   3.588   4.075   4.710
 2701SOL    HW1 8102   3.641   4.002   4.678
 2701SOL    HW2 8103   3.641   4.116   4.778
 2702SOL     OW 8104   4.547   1.040   4.337
 2702SOL    HW1 8105   4.590   0.997   4.411
 2702SOL    HW2 8106   4.604   1.021   4.262
 2703SOL     OW 8107   1.051   1.124   3.520
 2703SOL    HW1 8108   0.971   1.081   3.550
 2703SOL    HW2 8109   1.043   1.214   3.553
 2704SOL     OW 8110   3.880   2.196   0.492
 2704SOL    HW1 8111   3.857   2.264   0.429
 2704SOL    HW2 8112   3.909   2.122   0.439
 2705SOL     OW 8113   3.850   3.596   0.083
 2705SOL    HW1 8114   3.790   3.670   0.075
 2705SOL    HW2 8115   3.936   3.633   0.066
 2706SOL     OW 8116   0.872   3.144   0.918
 2706SOL    HW1 8117   0.932   3.093   0.863
 2706SOL    HW2 8118   0.841   3.213   0.860
 2707SOL     OW 8119   1.569   1.451   2.441
 2707SOL    HW1 8120   1.537   1.483   2.525
 2707SOL    HW2 8121   1.644   1.396   2.464
 2708SOL     OW 8122   4.967   4.140   0.802
 2708SOL    HW1 8123   4.927   4.188   0.874
 2708SOL    HW2 8124   4.995   4.208   0.741
 2709SOL     OW 8125   3.015   0.334   1.262
 2709SOL    HW1 8126   2.921   0.339   1.246
 2709SOL    HW2 8127   3.031   0.399   1.331
 2710SOL     OW 8128   3.537   4.466   3.093
 2710SOL    HW1 8129   3.501   4.424   3.015
 2710SOL    HW2 8130   3.620   4.421   3.109
 2711SOL     OW 8131   3.037   2.286   1.810
 2711SOL    HW1 8132   3.027   2.350   1.881
 2711SOL    HW2 8133   3.035   2.201   1.854
 2712SOL     OW 8134   2.631   4.441   3.619
 2712SOL    HW1 8135   2.604   4.392   3.541
 2712SOL    HW2 8136   2.726   4.451   3.610
 2713SOL     OW 8137   0.761   1.404   2.190
 2713SOL    HW1 8138   0.803   1.330   2.234
 2713SOL    HW2 8139   0.729   1.367   2.107
 2714SOL     OW 8140   1.526   1.275   3.369
 2714SOL    HW1 8141   1.434   1.250   3.380
 2714SOL    HW2 8142   1.574   1.215   3.426
 2715SOL     OW 8143   0.362   2.235   2.839
 2715SOL    HW1 8144   0.273   2.201   2.830
 2715SOL    HW2 8145   0.354   2.328   2.817
 2716SOL     OW 8146   3.966   4.352   2.672
 2716SOL    HW1 8147   3.967   4.266   2.630
 2716SOL    HW2 8148   3.922   4.410   2.609
 2717SOL     OW 8149   3.869   0.467   0.047
 2717SOL    HW1 8150   3.797   0.455  -0.015
 2717SOL    HW2 8151   3.833   0.521   0.116
 2718SOL     OW 8152   2.783   1.186   4.311
 2718SOL    HW1 8153   2.785   1.260   4.250
 2718SOL    HW2 8154   2.694   1.186   4.346
 2719SOL     OW 8155   2.811   4.535   1.821
 2719SOL    HW1 8156   2.816   4.626   1.793
 2719SOL    HW2 8157   2.769   4.490   1.747
 2720SOL     OW 8158   0.273   2.271   3.903
 2720SOL    HW1 8159   0.188   2.234   3.878
 2720SOL    HW2 8160   0.301   2.220   3.978
 2721SOL     OW 8161   2.446   4.142   1.191
 2721SOL    HW1 8162   2.397   4.083   1.249
 2721SOL    HW2 8163   2.418   4.229   1.217
 2722SOL     OW 8164   2.308   5.085   1.083
 2722SOL    HW1 8165   2.325   4.993   1.066
 2722SOL    HW2 8166   2.268   5.087   1.170
 2723SOL     OW 8167   0.057   4.640   4.798
 2723SOL    HW1 8168   0.073   4.728   4.833
 2723SOL    HW2 8169   0.143   4.600   4.790
 2724SOL     OW 8170   3.457   2.541   0.087
 2724SOL    HW1 8171   3.409   2.551   0.169
 2724SOL    HW2 8172   3.389   2.528   0.021
 2725SOL     OW 8173   1.714   1.661   0.625
 2725SOL    HW1 8174   1.804   1.642   0.654
 2725SOL    HW2 8175   1.707   1.756   0.628
 2726SOL     OW 8176   0.000   3.814   1.317
 2726SOL    HW1 8177   0.018   3.883   1.253
 2726SOL    HW2 8178   0.052   3.839   1.394
 2727SOL     OW 8179   4.210   4.948   1.529
 2727SOL    HW1 8180   4.227   4.896   1.608
 2727SOL    HW2 8181   4.157   4.892   1.473
 2728SOL     OW 8182   1.844   3.264   1.431
 2728SOL    HW1 8183   1.860   3.216   1.512
 2728SOL    HW2 8184   1.927   3.260   1.383
 2729SOL     OW 8185   4.974   2.319   4.587
 2729SOL    HW1 8186   5.037   2.388   4.567
 2729SOL    HW2 8187   5.004   2.244   4.536
 2730SOL     OW 8188   3.984   1.957   2.992
 2730SOL    HW1 8189   4.012   2.012   3.065
 2730SOL    HW2 8190   4.022   1.871   3.010
 2731SOL     OW 8191   0.646   4.370   1.610
 2731SOL    HW1 8192   0.709   4.311   1.652
 2731SOL    HW2 8193   0.661   4.357   1.516
 2732SOL     OW 8194   1.006   2.364   2.694
 2732SOL    HW1 8195   0.994   2.291   2.755
 2732SOL    HW2 8196   0.918   2.399   2.682
 2733SOL     OW 8197   0.229   3.201   2.537
 2733SOL    HW1 8198   0.258   3.133   2.476
 2733SOL    HW2 8199   0.133   3.195   2.535
 2734SOL     OW 8200   4.475   0.388   3.851
 2734SOL    HW1 8201   4.508   0.466   3.807
 2734SOL    HW2 8202   4.543   0.365   3.915
 2735SOL     OW 8203   1.061   1.852   2.333
 2735SOL    HW1 8204   1.097   1.915   2.271
 2735SOL    HW2 8205   0.976   1.887   2.358
 2736SOL     OW 8206   0.216   4.893   3.372
 2736SOL    HW1 8207   0.187   4.840   3.446
 2736SOL    HW2 8208   0.270   4.962   3.410
 2737SOL     OW 8209   3.292   0.696   4.833
 2737SOL    HW1 8210   3.352   0.730   4.766
 2737SOL    HW2 8211   3.325   0.731   4.915
 2738SOL     OW 8212   4.144   1.362   2.706
 2738SOL    HW1 8213   4.099   1.430   2.655
 2738SOL    HW2 8214   4.085   1.345   2.779
 2739SOL     OW 8215   0.360   1.734   0.300
 2739SOL    HW1 8216   0.369   1.789   0.377
 2739SOL    HW2 8217   0.423   1.663   0.313
 2740SOL     OW 8218   2.169   4.197   2.295
 2740SOL    HW1 8219   2.182   4.291   2.307
 2740SOL    HW2 8220   2.134   4.166   2.378
 2741SOL     OW 8221   0.268   4.112   2.957
 2741SOL    HW1 8222   0.230   4.029   2.928
 2741SOL    HW2 8223   0.195   4.160   2.996
 2742SOL     OW 8224   2.246   4.450   0.084
 2742SOL    HW1 8225   2.184   4.432   0.013
 2742SOL    HW2 8226   2.293   4.529   0.055
 2743SOL     OW 8227   1.904   3.793   1.261
 2743SOL    HW1 8228   1.850   3.870   1.275
 2743SOL    HW2 8229   1.875   3.731   1.329
 2744SOL     OW 8230   0.357   3.819   0.328
 2744SOL    HW1 8231   0.300   3.863   0.392
 2744SOL    HW2 8232   0.400   3.749   0.378
 2745SOL     OW 8233   4.572   2.639   2.359
 2745SOL    HW1 8234   4.650   2.601   2.401
 2745SOL    HW2 8235   4.519   2.669   2.432
 2746SOL     OW 8236   1.066   2.421   0.568
 2746SOL    HW1 8237   1.125   2.414   0.493
 2746SOL    HW2 8238   1.103   2.361   0.633
 2747SOL     OW 8239   2.607   0.482   0.934
 2747SOL    HW1 8240   2.625   0.568   0.895
 2747SOL    HW2 8241   2.663   0.422   0.886
 2748SOL     OW 8242   4.662   3.144   1.387
 2748SOL    HW1 8243   4.748   3.112   1.358
 2748SOL    HW2 8244   4.647   3.223   1.335
 2749SOL     OW 8245   3.319   1.706   4.514
 2749SOL    HW1 8246   3.227   1.717   4.540
 2749SOL    HW2 8247   3.315   1.661   4.430
 2750SOL     OW 8248   0.110   1.471   2.488
 2750SOL    HW1 8249   0.158   1.491   2.408
 2750SOL    HW2 8250   0.161   1.401   2.530
 2751SOL     OW 8251   3.197   4.827   5.147
 2751SOL    HW1 8252   3.212   4.882   5.070
 2751SOL    HW2 8253   3.138   4.758   5.116
 2752SOL     OW 8254   2.094   0.756   3.794
 2752SOL    HW1 8255   2.166   0.799   3.747
 2752SOL    HW2 8256   2.058   0.824   3.850
 2753SOL     OW 8257   4.684   0.336   1.150
 2753SOL    HW1 8258   4.690   0.428   1.125
 2753SOL    HW2 8259   4.752   0.325   1.217
 2754SOL     OW 8260   2.552   0.594   1.747
 2754SOL    HW1 8261   2.485   0.581   1.814
 2754SOL    HW2 8262   2.557   0.689   1.736
 2755SOL     OW 8263   1.732   0.991   2.785
 2755SOL    HW1 8264   1.773   1.038   2.858
 2755SOL    HW2 8265   1.718   1.058   2.718
 2756SOL     OW 8266   1.553   4.879   4.202
 2756SOL    HW1 8267   1.546   4.971   4.226
 2756SOL    HW2 8268   1.488   4.835   4.256
 2757SOL     OW 8269   4.231   4.287   0.099
 2757SOL    HW1 8270   4.172   4.216   0.123
 2757SOL    HW2 8271   4.280   4.254   0.024
 2758SOL     OW 8272   5.064   2.466   1.782
 2758SOL    HW1 8273   4.973   2.461   1.753
 2758SOL    HW2 8274   5.074   2.393   1.843
 2759SOL     OW 8275   0.209   3.227   1.949
 2759SOL    HW1 8276   0.224   3.141   1.908
 2759SOL    HW2 8277   0.222   3.290   1.878
 2760SOL     OW 8278   4.989   1.209   0.479
 2760SOL    HW1 8279   4.993   1.114   0.488
 2760SOL    HW2 8280   4.986   1.241   0.570
 2761SOL     OW 8281   0.817   0.066   0.795
 2761SOL    HW1 8282   0.811   0.162   0.792
 2761SOL    HW2 8283   0.901   0.047   0.754
 2762SOL     OW 8284   1.672   1.881   0.868
 2762SOL    HW1 8285   1.621   1.850   0.942
 2762SOL    HW2 8286   1.608   1.892   0.797
 2763SOL     OW 8287   4.108   0.979   0.186
 2763SOL    HW1 8288   4.077   1.025   0.108
 2763SOL    HW2 8289   4.036   0.922   0.211
 2764SOL     OW 8290   5.101   4.351   3.553
 2764SOL    HW1 8291   5.012   4.356   3.518
 2764SOL    HW2 8292   5.148   4.296   3.489
 2765SOL     OW 8293   0.905   2.593   3.251
 2765SOL    HW1 8294   0.853   2.628   3.323
 2765SOL    HW2 8295   0.996   2.611   3.276
 2766SOL     OW 8296   0.318   3.537   2.128
 2766SOL    HW1 8297   0.402   3.500   2.158
 2766SOL    HW2 8298   0.341   3.621   2.090
 2767SOL     OW 8299   1.076   1.651   0.405
 2767SOL    HW1 8300   1.067   1.686   0.494
 2767SOL    HW2 8301   1.109   1.561   0.417
 2768SOL     OW 8302   4.779   3.308   4.008
 2768SOL    HW1 8303   4.841   3.247   4.047
 2768SOL    HW2 8304   4.811   3.395   4.033
 2769SOL     OW 8305   4.886   3.554   4.043
 2769SOL    HW1 8306   4.834   3.632   4.021
 2769SOL    HW2 8307   4.975   3.588   4.058
 2770SOL     OW 8308   4.049   3.277   0.234
 2770SOL    HW1 8309   3.968   3.282   0.285
 2770SOL    HW2 8310   4.109   3.228   0.289
 2771SOL     OW 8311   2.540   5.121   1.316
 2771SOL    HW1 8312   2.537   5.025   1.321
 2771SOL    HW2 8313   2.631   5.143   1.335
 2772SOL     OW 8314   4.927   4.567   2.040
 2772SOL    HW1 8315   4.859   4.631   2.019
 2772SOL    HW2 8316   4.994   4.580   1.973
 2773SOL     OW 8317   0.970   5.040   1.240
 2773SOL    HW1 8318   1.023   4.962   1.259
 2773SOL    HW2 8319   0.932   5.064   1.324
 2774SOL     OW 8320   3.396   1.438   3.560
 2774SOL    HW1 8321   3.391   1.517   3.508
 2774SOL    HW2 8322   3.430   1.371   3.500
 2775SOL     OW 8323   4.738   3.302   3.648
 2775SOL    HW1 8324   4.742   3.329   3.556
 2775SOL    HW2 8325   4.830   3.304   3.677
 2776SOL     OW 8326   2.739   3.265   2.452
 2776SOL    HW1 8327   2.828   3.284   2.481
 2776SOL    HW2 8328   2.744   3.175   2.419
 2777SOL     OW 8329   4.266   2.684   2.795
 2777SOL    HW1 8330   4.183   2.696   2.840
 2777SOL    HW2 8331   4.319   2.759   2.820
 2778SOL     OW 8332   3.413   2.003   4.503
 2778SOL    HW1 8333   3.330   2.008   4.456
 2778SOL    HW2 8334   3.407   1.923   4.554
 2779SOL     OW 8335   5.144   1.297   0.914
 2779SOL    HW1 8336   5.178   1.300   0.824
 2779SOL    HW2 8337   5.112   1.386   0.929
 2780SOL     OW 8338   4.537   1.404   2.112
 2780SOL    HW1 8339   4.454   1.358   2.096
 2780SOL    HW2 8340   4.514   1.473   2.175
 2781SOL     OW 8341   2.138   4.727   2.058
 2781SOL    HW1 8342   2.172   4.777   1.984
 2781SOL    HW2 8343   2.185   4.763   2.134
 2782SOL     OW 8344   0.298   3.384   3.329
 2782SOL    HW1 8345   0.344   3.456   3.372
 2782SOL    HW2 8346   0.280   3.416   3.240
 2783SOL     OW 8347   2.763   4.184   4.455
 2783SOL    HW1 8348   2.796   4.095   4.441
 2783SOL    HW2 8349   2.791   4.232   4.377
 2784SOL     OW 8350   4.511   4.209   4.931
 2784SOL    HW1 8351   4.572   4.179   4.864
 2784SOL    HW2 8352   4.463   4.280   4.889
 2785SOL     OW 8353   0.115   1.516   0.421
 2785SOL    HW1 8354   0.114   1.578   0.348
 2785SOL    HW2 8355   0.152   1.565   0.494
 2786SOL     OW 8356   2.885   4.508   4.547
 2786SOL    HW1 8357   2.882   4.453   4.469
 2786SOL    HW2 8358   2.895   4.597   4.514
 2787SOL     OW 8359   0.377   1.138   1.157
 2787SOL    HW1 8360   0.452   1.140   1.217
 2787SOL    HW2 8361   0.369   1.046   1.132
 2788SOL     OW 8362   4.874   3.961   2.497
 2788SOL    HW1 8363   4.808   3.944   2.429
 2788SOL    HW2 8364   4.942   4.012   2.452
 2789SOL     OW 8365   3.691   4.100   0.126
 2789SOL    HW1 8366   3.656   4.144   0.204
 2789SOL    HW2 8367   3.743   4.167   0.082
 2790SOL     OW 8368   2.753   0.250   0.864
 2790SOL    HW1 8369   2.712   0.178   0.911
 2790SOL    HW2 8370   2.846   0.242   0.882
 2791SOL     OW 8371   2.161   2.240   2.637
 2791SOL    HW1 8372   2.106   2.217   2.563
 2791SOL    HW2 8373   2.103   2.233   2.713
 2792SOL     OW 8374   3.045   1.618   3.445
 2792SOL    HW1 8375   2.987   1.542   3.450
 2792SOL    HW2 8376   3.127   1.584   3.409
 2793SOL     OW 8377   1.194   1.367   4.861
 2793SOL    HW1 8378   1.138   1.402   4.791
 2793SOL    HW2 8379   1.281   1.364   4.822
 2794SOL     OW 8380   0.616   1.727   4.770
 2794SOL    HW1 8381   0.645   1.684   4.850
 2794SOL    HW2 8382   0.640   1.819   4.782
 2795SOL     OW 8383   2.196   0.926   3.350
 2795SOL    HW1 8384   2.229   0.985   3.281
 2795SOL    HW2 8385   2.142   0.862   3.303
 2796SOL     OW 8386   0.865   3.952   1.672
 2796SOL    HW1 8387   0.945   3.957   1.725
 2796SOL    HW2 8388   0.884   3.886   1.605
 2797SOL     OW 8389   3.144   1.295   4.776
 2797SOL    HW1 8390   3.061   1.291   4.824
 2797SOL    HW2 8391   3.152   1.208   4.737
 2798SOL     OW 8392   0.127   2.118   0.323
 2798SOL    HW1 8393   0.095   2.035   0.359
 2798SOL    HW2 8394   0.177   2.092   0.245
 2799SOL     OW 8395   0.314   2.170   5.064
 2799SOL    HW1 8396   0.263   2.248   5.046
 2799SOL    HW2 8397   0.322   2.167   5.159
 2800SOL     OW 8398   2.350   3.732   3.917
 2800SOL    HW1 8399   2.257   3.745   3.937
 2800SOL    HW2 8400   2.362   3.637   3.919
 2801SOL     OW 8401   0.420   3.708   2.367
 2801SOL    HW1 8402   0.453   3.727   2.279
 2801SOL    HW2 8403   0.473   3.635   2.397
 2802SOL     OW 8404   1.105   4.079   5.178
 2802SOL    HW1 8405   1.146   4.032   5.105
 2802SOL    HW2 8406   1.049   4.144   5.137
 2803SOL     OW 8407   3.708   4.283   3.846
 2803SOL    HW1 8408   3.764   4.205   3.841
 2803SOL    HW2 8409   3.759   4.345   3.900
 2804SOL     OW 8410   1.413   0.259   1.413
 2804SOL    HW1 8411   1.466   0.218   1.345
 2804SOL    HW2 8412   1.461   0.241   1.494
 2805SOL     OW 8413   4.908   1.641   3.801
 2805SOL    HW1 8414   4.979   1.677   3.748
 2805SOL    HW2 8415   4.934   1.550   3.817
 2806SOL     OW 8416   2.878   0.668   0.874
 2806SOL    HW1 8417   2.918   0.595   0.921
 2806SOL    HW2 8418   2.909   0.657   0.784
 2807SOL     OW 8419   1.685   0.745   4.380
 2807SOL    HW1 8420   1.661   0.755   4.288
 2807SOL    HW2 8421   1.635   0.669   4.409
 2808SOL     OW 8422   2.594   1.362   3.779
 2808SOL    HW1 8423   2.628   1.445   3.814
 2808SOL    HW2 8424   2.585   1.379   3.685
 2809SOL     OW 8425   4.320   3.325   2.828
 2809SOL    HW1 8426   4.326   3.241   2.783
 2809SOL    HW2 8427   4.397   3.328   2.884
 2810SOL     OW 8428   3.940   0.839   4.759
 2810SOL    HW1 8429   3.912   0.927   4.784
 2810SOL    HW2 8430   4.035   0.840   4.768
 2811SOL     OW 8431   3.865   2.307   2.401
 2811SOL    HW1 8432   3.855   2.402   2.403
 2811SOL    HW2 8433   3.946   2.290   2.449
 2812SOL     OW 8434   4.240   4.506   4.120
 2812SOL    HW1 8435   4.181   4.502   4.195
 2812SOL    HW2 8436   4.195   4.456   4.052
 2813SOL     OW 8437   2.053   2.783   1.784
 2813SOL    HW1 8438   2.090   2.858   1.737
 2813SOL    HW2 8439   1.994   2.742   1.721
 2814SOL     OW 8440   0.062   3.503   1.987
 2814SOL    HW1 8441   0.139   3.496   2.045
 2814SOL    HW2 8442   0.008   3.570   2.028
 2815SOL     OW 8443   3.403   3.426   1.745
 2815SOL    HW1 8444   3.475   3.482   1.774
 2815SOL    HW2 8445   3.334   3.488   1.720
 2816SOL     OW 8446   3.804   1.826   2.541
 2816SOL    HW1 8447   3.782   1.863   2.627
 2816SOL    HW2 8448   3.784   1.897   2.480
 2817SOL     OW 8449   2.671   3.771   1.301
 2817SOL    HW1 8450   2.678   3.676   1.294
 2817SOL    HW2 8451   2.587   3.792   1.260
 2818SOL     OW 8452   1.185   3.330   2.062
 2818SOL    HW1 8453   1.182   3.308   1.969
 2818SOL    HW2 8454   1.225   3.417   2.065
 2819SOL     OW 8455   5.066   1.363   4.175
 2819SOL    HW1 8456   4.982   1.390   4.211
 2819SOL    HW2 8457   5.073   1.270   4.199
 2820SOL     OW 8458   4.374   1.719   0.870
 2820SOL    HW1 8459   4.427   1.640   0.866
 2820SOL    HW2 8460   4.401   1.762   0.951
 2821SOL     OW 8461   0.580   4.726   3.873
 2821SOL    HW1 8462   0.521   4.666   3.920
 2821SOL    HW2 8463   0.521   4.784   3.825
 2822SOL     OW 8464   3.392   4.490   2.576
 2822SOL    HW1 8465   3.465   4.483   2.638
 2822SOL    HW2 8466   3.375   4.584   2.570
 2823SOL     OW 8467   2.008   4.643   2.768
 2823SOL    HW1 8468   2.070   4.698   2.817
 2823SOL    HW2 8469   2.014   4.675   2.678
 2824SOL     OW 8470   0.843   2.142   0.497
 2824SOL    HW1 8471   0.913   2.155   0.433
 2824SOL    HW2 8472   0.829   2.229   0.534
 2825SOL     OW 8473   3.905   4.736   4.401
 2825SOL    HW1 8474   3.811   4.740   4.389
 2825SOL    HW2 8475   3.935   4.827   4.397
 2826SOL     OW 8476   2.233   1.067   0.117
 2826SOL    HW1 8477   2.170   0.996   0.126
 2826SOL    HW2 8478   2.180   1.143   0.095
 2827SOL     OW 8479   4.079   0.162   0.717
 2827SOL    HW1 8480   4.049   0.209   0.639
 2827SOL    HW2 8481   4.073   0.069   0.692
 2828SOL     OW 8482   2.095   1.002   2.476
 2828SOL    HW1 8483   2.000   0.992   2.472
 2828SOL    HW2 8484   2.114   1.076   2.419
 2829SOL     OW 8485   1.874   3.737   3.251
 2829SOL    HW1 8486   1.960   3.767   3.220
 2829SOL    HW2 8487   1.866   3.648   3.217
 2830SOL     OW 8488   4.817   3.873   2.942
 2830SOL    HW1 8489   4.840   3.949   2.888
 2830SOL    HW2 8490   4.900   3.847   2.982
 2831SOL     OW 8491   4.353   0.877   0.274
 2831SOL    HW1 8492   4.310   0.794   0.293
 2831SOL    HW2 8493   4.284   0.932   0.237
 2832SOL     OW 8494   0.305   3.738   1.234
 2832SOL    HW1 8495   0.210   3.726   1.245
 2832SOL    HW2 8496   0.344   3.666   1.284
 2833SOL     OW 8497   2.838   2.352   1.037
 2833SOL    HW1 8498   2.917   2.328   1.085
 2833SOL    HW2 8499   2.870   2.389   0.954
 2834SOL     OW 8500   3.366   3.654   4.300
 2834SOL    HW1 8501   3.373   3.729   4.240
 2834SOL    HW2 8502   3.438   3.666   4.361
 2835SOL     OW 8503   5.114   1.669   4.673
 2835SOL    HW1 8504   5.116   1.765   4.673
 2835SOL    HW2 8505   5.135   1.644   4.583
 2836SOL     OW 8506   4.125   4.897   4.571
 2836SOL    HW1 8507   4.037   4.934   4.561
 2836SOL    HW2 8508   4.180   4.948   4.512
 2837SOL     OW 8509   3.277   1.489   3.119
 2837SOL    HW1 8510   3.328   1.476   3.199
 2837SOL    HW2 8511   3.189   1.458   3.141
 2838SOL     OW 8512   3.719   0.323   0.634
 2838SOL    HW1 8513   3.773   0.384   0.584
 2838SOL    HW2 8514   3.728   0.240   0.588
 2839SOL     OW 8515   2.093   3.410   4.642
 2839SOL    HW1 8516   2.097   3.494   4.596
 2839SOL    HW2 8517   2.093   3.434   4.735
 2840SOL     OW 8518   1.314   4.137   2.342
 2840SOL    HW1 8519   1.307   4.066   2.278
 2840SOL    HW2 8520   1.255   4.112   2.413
 2841SOL     OW 8521   1.974   4.647   0.102
 2841SOL    HW1 8522   2.069   4.640   0.110
 2841SOL    HW2 8523   1.956   4.625   0.010
 2842SOL     OW 8524   4.781   0.855   3.189
 2842SOL    HW1 8525   4.697   0.820   3.157
 2842SOL    HW2 8526   4.793   0.814   3.275
 2843SOL     OW 8527   4.877   0.066   5.177
 2843SOL    HW1 8528   4.847  -0.014   5.134
 2843SOL    HW2 8529   4.888   0.129   5.107
 2844SOL     OW 8530   1.399   2.180   0.793
 2844SOL    HW1 8531   1.430   2.181   0.884
 2844SOL    HW2 8532   1.396   2.087   0.770
 2845SOL     OW 8533   2.515   3.916   5.090
 2845SOL    HW1 8534   2.493   3.897   5.181
 2845SOL    HW2 8535   2.533   4.010   5.089
 2846SOL     OW 8536   2.035   0.758   1.918
 2846SOL    HW1 8537   2.049   0.695   1.848
 2846SOL    HW2 8538   1.946   0.738   1.950
 2847SOL     OW 8539   4.765   1.349   4.275
 2847SOL    HW1 8540   4.792   1.300   4.198
 2847SOL    HW2 8541   4.671   1.330   4.284
 2848SOL     OW 8542   2.415   0.402   4.739
 2848SOL    HW1 8543   2.463   0.478   4.707
 2848SOL    HW2 8544   2.364   0.371   4.664
 2849SOL     OW 8545   3.489   1.970   4.818
 2849SOL    HW1 8546   3.531   2.046   4.859
 2849SOL    HW2 8547   3.408   2.005   4.781
 2850SOL     OW 8548   1.768   2.602   2.262
 2850SOL    HW1 8549   1.733   2.647   2.185
 2850SOL    HW2 8550   1.755   2.663   2.333
 2851SOL     OW 8551   3.484   2.895   0.212
 2851SOL    HW1 8552   3.482   2.799   0.219
 2851SOL    HW2 8553   3.529   2.912   0.129
 2852SOL     OW 8554   3.510   1.744   3.595
 2852SOL    HW1 8555   3.539   1.825   3.636
 2852SOL    HW2 8556   3.525   1.676   3.661
 2853SOL     OW 8557   4.216   2.011   5.114
 2853SOL    HW1 8558   4.305   2.020   5.081
 2853SOL    HW2 8559   4.224   2.022   5.209
 2854SOL     OW 8560   1.629   5.116   0.415
 2854SOL    HW1 8561   1.667   5.036   0.378
 2854SOL    HW2 8562   1.679   5.130   0.496
 2855SOL     OW 8563   0.253   3.062   3.969
 2855SOL    HW1 8564   0.327   3.027   4.019
 2855SOL    HW2 8565   0.218   3.132   4.024
 2856SOL     OW 8566   3.723   3.161   3.478
 2856SOL    HW1 8567   3.652   3.142   3.416
 2856SOL    HW2 8568   3.698   3.244   3.518
 2857SOL     OW 8569   1.137   0.575   2.502
 2857SOL    HW1 8570   1.146   0.493   2.551
 2857SOL    HW2 8571   1.213   0.627   2.529
 2858SOL     OW 8572   2.088  -0.032   1.658
 2858SOL    HW1 8573   2.031   0.027   1.609
 2858SOL    HW2 8574   2.154   0.026   1.697
 2859SOL     OW 8575   0.707   0.273   3.209
 2859SOL    HW1 8576   0.646   0.220   3.261
 2859SOL    HW2 8577   0.693   0.245   3.119
 2860SOL     OW 8578   0.957   4.871   2.536
 2860SOL    HW1 8579   0.871   4.890   2.498
 2860SOL    HW2 8580   1.019   4.915   2.479
 2861SOL     OW 8581   1.052   4.058   0.562
 2861SOL    HW1 8582   1.060   3.965   0.584
 2861SOL    HW2 8583   0.958   4.071   0.546
 2862SOL     OW 8584   5.151   3.866   3.714
 2862SOL    HW1 8585   5.242   3.863   3.684
 2862SOL    HW2 8586   5.131   3.960   3.720
 2863SOL     OW 8587   3.546   3.581   1.987
 2863SOL    HW1 8588   3.575   3.657   1.937
 2863SOL    HW2 8589   3.451   3.593   1.994
 2864SOL     OW 8590   1.215   4.962   0.536
 2864SOL    HW1 8591   1.288   4.924   0.584
 2864SOL    HW2 8592   1.244   5.050   0.513
 2865SOL     OW 8593   4.207   2.167   3.173
 2865SOL    HW1 8594   4.192   2.233   3.106
 2865SOL    HW2 8595   4.294   2.132   3.153
 2866SOL     OW 8596   3.971   4.662   4.119
 2866SOL    HW1 8597   3.931   4.689   4.201
 2866SOL    HW2 8598   4.046   4.721   4.107
 2867SOL     OW 8599   1.005   0.810   3.585
 2867SOL    HW1 8600   1.057   0.735   3.613
 2867SOL    HW2 8601   0.969   0.783   3.500
 2868SOL     OW 8602   0.622   1.994   2.206
 2868SOL    HW1 8603   0.539   2.009   2.162
 2868SOL    HW2 8604   0.598   1.947   2.286
 2869SOL     OW 8605   2.370   1.599   1.387
 2869SOL    HW1 8606   2.427   1.600   1.310
 2869SOL    HW2 8607   2.283   1.619   1.353
 2870SOL     OW 8608   1.724   0.381   1.178
 2870SOL    HW1 8609   1.661   0.452   1.191
 2870SOL    HW2 8610   1.675   0.312   1.133
 2871SOL     OW 8611   2.202   1.853   2.482
 2871SOL    HW1 8612   2.264   1.926   2.476
 2871SOL    HW2 8613   2.205   1.813   2.395
 2872SOL     OW 8614   2.658   5.004   3.049
 2872SOL    HW1 8615   2.714   5.025   2.975
 2872SOL    HW2 8616   2.621   5.088   3.076
 2873SOL     OW 8617   0.655  -0.016   0.995
 2873SOL    HW1 8618   0.734  -0.005   0.943
 2873SOL    HW2 8619   0.628   0.074   1.017
 2874SOL     OW 8620   2.718   0.357   1.751
 2874SOL    HW1 8621   2.796   0.362   1.806
 2874SOL    HW2 8622   2.664   0.431   1.780
 2875SOL     OW 8623   4.266   3.803   4.815
 2875SOL    HW1 8624   4.361   3.791   4.806
 2875SOL    HW2 8625   4.232   3.714   4.823
 2876SOL     OW 8626   0.163   3.954   1.484
 2876SOL    HW1 8627   0.237   3.934   1.541
 2876SOL    HW2 8628   0.116   4.025   1.528
 2877SOL     OW 8629   4.618   3.903   4.532
 2877SOL    HW1 8630   4.586   3.853   4.457
 2877SOL    HW2 8631   4.575   3.988   4.524
 2878SOL     OW 8632   0.065   4.088   0.836
 2878SOL    HW1 8633  -0.020   4.130   0.847
 2878SOL    HW2 8634   0.112   4.145   0.774
 2879SOL     OW 8635   4.548   0.521   1.634
 2879SOL    HW1 8636   4.488   0.521   1.708
 2879SOL    HW2 8637   4.503   0.472   1.566
 2880SOL     OW 8638   2.655   3.552   4.172
 2880SOL    HW1 8639   2.619   3.468   4.145
 2880SOL    HW2 8640   2.646   3.553   4.267
 2881SOL     OW 8641   1.935   1.689   3.896
 2881SOL    HW1 8642   1.858   1.650   3.937
 2881SOL    HW2 8643   1.964   1.756   3.958
 2882SOL     OW 8644   4.825   2.810   3.026
 2882SOL    HW1 8645   4.904   2.776   2.985
 2882SOL    HW2 8646   4.836   2.791   3.119
 2883SOL     OW 8647   0.117   0.548   0.199
 2883SOL    HW1 8648   0.065   0.521   0.123
 2883SOL    HW2 8649   0.207   0.526   0.176
 2884SOL     OW 8650   3.642   0.488   2.701
 2884SOL    HW1 8651   3.734   0.497   2.728
 2884SOL    HW2 8652   3.620   0.397   2.720
 2885SOL     OW 8653   0.270   2.528   0.925
 2885SOL    HW1 8654   0.233   2.571   1.002
 2885SOL    HW2 8655   0.277   2.598   0.860
 2886SOL     OW 8656   1.701   1.965   3.986
 2886SOL    HW1 8657   1.746   1.899   3.934
 2886SOL    HW2 8658   1.666   2.027   3.922
 2887SOL     OW 8659   2.172   1.614   1.732
 2887SOL    HW1 8660   2.099   1.665   1.768
 2887SOL    HW2 8661   2.164   1.529   1.775
 2888SOL     OW 8662   1.955   1.444   3.134
 2888SOL    HW1 8663   1.880   1.503   3.135
 2888SOL    HW2 8664   1.954   1.405   3.047
 2889SOL     OW 8665   4.371   1.831   4.624
 2889SOL    HW1 8666   4.407   1.894   4.561
 2889SOL    HW2 8667   4.417   1.849   4.706
 2890SOL     OW 8668   4.065   2.856   2.901
 2890SOL    HW1 8669   4.105   2.897   2.977
 2890SOL    HW2 8670   4.042   2.929   2.844
 2891SOL     OW 8671   0.243   2.761   3.541
 2891SOL    HW1 8672   0.208   2.714   3.617
 2891SOL    HW2 8673   0.320   2.807   3.575
 2892SOL     OW 8674   4.681   4.785   3.303
 2892SOL    HW1 8675   4.697   4.879   3.317
 2892SOL    HW2 8676   4.751   4.757   3.245
 2893SOL     OW 8677   4.216   1.502   4.732
 2893SOL    HW1 8678   4.274   1.494   4.807
 2893SOL    HW2 8679   4.162   1.578   4.751
 2894SOL     OW 8680   2.870   0.490   0.238
 2894SOL    HW1 8681   2.836   0.400   0.241
 2894SOL    HW2 8682   2.950   0.483   0.185
 2895SOL     OW 8683   3.079   2.414   2.722
 2895SOL    HW1 8684   2.983   2.419   2.726
 2895SOL    HW2 8685   3.102   2.341   2.779
 2896SOL     OW 8686   4.046   0.126   2.222
 2896SOL    HW1 8687   4.089   0.198   2.270
 2896SOL    HW2 8688   4.001   0.170   2.150
 2897SOL     OW 8689   0.358   1.977   3.733
 2897SOL    HW1 8690   0.317   1.914   3.792
 2897SOL    HW2 8691   0.387   1.924   3.659
 2898SOL     OW 8692   4.002   4.116   2.945
 2898SOL    HW1 8693   4.066   4.068   2.893
 2898SOL    HW2 8694   4.055   4.180   2.994
 2899SOL     OW 8695   0.228   3.076   0.441
 2899SOL    HW1 8696   0.141   3.108   0.465
 2899SOL    HW2 8697   0.269   3.053   0.525
 2900SOL     OW 8698   3.050   2.682   3.302
 2900SOL    HW1 8699   3.046   2.665   3.396
 2900SOL    HW2 8700   2.977   2.742   3.285
 2901SOL     OW 8701   3.971   1.316   0.781
 2901SOL    HW1 8702   4.027   1.274   0.846
 2901SOL    HW2 8703   3.921   1.381   0.830
 2902SOL     OW 8704   3.613   2.136   2.867
 2902SOL    HW1 8705   3.606   2.222   2.826
 2902SOL    HW2 8706   3.653   2.153   2.952
 2903SOL     OW 8707   0.848   0.851   4.661
 2903SOL    HW1 8708   0.833   0.912   4.734
 2903SOL    HW2 8709   0.847   0.907   4.583
 2904SOL     OW 8710   4.220   0.384   5.170
 2904SOL    HW1 8711   4.171   0.302   5.180
 2904SOL    HW2 8712   4.190   0.420   5.087
 2905SOL     OW 8713   4.489   2.321   3.855
 2905SOL    HW1 8714   4.548   2.302   3.928
 2905SOL    HW2 8715   4.530   2.277   3.780
 2906SOL     OW 8716   3.747   2.113   3.371
 2906SOL    HW1 8717   3.712   2.184   3.424
 2906SOL    HW2 8718   3.840   2.108   3.395
 2907SOL     OW 8719   4.451   3.325   4.958
 2907SOL    HW1 8720   4.461   3.345   5.051
 2907SOL    HW2 8721   4.378   3.263   4.954
 2908SOL     OW 8722   0.395   1.982   4.764
 2908SOL    HW1 8723   0.489   1.983   4.783
 2908SOL    HW2 8724   0.383   2.054   4.702
 2909SOL     OW 8725   0.358   2.101   0.154
 2909SOL    HW1 8726   0.370   2.019   0.107
 2909SOL    HW2 8727   0.444   2.119   0.194
 2910SOL     OW 8728   0.347   3.053   2.763
 2910SOL    HW1 8729   0.383   3.135   2.728
 2910SOL    HW2 8730   0.381   2.986   2.704
 2911SOL     OW 8731   1.861   3.896   1.570
 2911SOL    HW1 8732   1.833   3.980   1.605
 2911SOL    HW2 8733   1.780   3.845   1.564
 2912SOL     OW 8734   3.354   2.485   4.532
 2912SOL    HW1 8735   3.407   2.514   4.606
 2912SOL    HW2 8736   3.274   2.451   4.573
 2913SOL     OW 8737   4.778   0.245   0.221
 2913SOL    HW1 8738   4.698   0.263   0.270
 2913SOL    HW2 8739   4.748   0.201   0.141
 2914SOL     OW 8740   5.057   0.814   2.874
 2914SOL    HW1 8741   5.152   0.809   2.882
 2914SOL    HW2 8742   5.043   0.875   2.802
 2915SOL     OW 8743   1.634   1.415   3.688
 2915SOL    HW1 8744   1.699   1.395   3.756
 2915SOL    HW2 8745   1.601   1.330   3.660
 2916SOL     OW 8746   0.429   3.002   4.200
 2916SOL    HW1 8747   0.397   2.913   4.208
 2916SOL    HW2 8748   0.524   2.994   4.200
 2917SOL     OW 8749   1.772   2.824   4.294
 2917SOL    HW1 8750   1.838   2.876   4.339
 2917SOL    HW2 8751   1.693   2.878   4.298
 2918SOL     OW 8752   2.298   1.156   1.867
 2918SOL    HW1 8753   2.303   1.077   1.921
 2918SOL    HW2 8754   2.358   1.139   1.795
 2919SOL     OW 8755   3.634   1.985   1.208
 2919SOL    HW1 8756   3.592   2.024   1.131
 2919SOL    HW2 8757   3.594   2.030   1.283
 2920SOL     OW 8758   5.052   1.371   2.442
 2920SOL    HW1 8759   5.143   1.395   2.461
 2920SOL    HW2 8760   5.023   1.322   2.519
 2921SOL     OW 8761   1.216   1.831   0.944
 2921SOL    HW1 8762   1.214   1.739   0.919
 2921SOL    HW2 8763   1.175   1.832   1.031
 2922SOL     OW 8764   1.354   4.140   0.134
 2922SOL    HW1 8765   1.259   4.145   0.124
 2922SOL    HW2 8766   1.384   4.229   0.120
 2923SOL     OW 8767   1.564   4.472   3.834
 2923SOL    HW1 8768   1.545   4.422   3.914
 2923SOL    HW2 8769   1.580   4.561   3.865
 2924SOL     OW 8770   3.915   2.637   1.460
 2924SOL    HW1 8771   3.829   2.635   1.503
 2924SOL    HW2 8772   3.965   2.701   1.511
 2925SOL     OW 8773   1.456   1.031   2.034
 2925SOL    HW1 8774   1.421   1.120   2.031
 2925SOL    HW2 8775   1.401   0.985   2.097
 2926SOL     OW 8776   1.262   4.830   2.230
 2926SOL    HW1 8777   1.333   4.844   2.292
 2926SOL    HW2 8778   1.306   4.810   2.147
 2927SOL     OW 8779   2.014   0.287   0.064
 2927SOL    HW1 8780   2.072   0.343   0.013
 2927SOL    HW2 8781   2.049   0.291   0.154
 2928SOL     OW 8782   2.850   0.977   3.337
 2928SOL    HW1 8783   2.883   1.018   3.417
 2928SOL    HW2 8784   2.764   0.944   3.361
 2929SOL     OW 8785   4.713   2.395   4.544
 2929SOL    HW1 8786   4.655   2.327   4.579
 2929SOL    HW2 8787   4.800   2.372   4.578
 2930SOL     OW 8788   4.976   4.748   2.696
 2930SOL    HW1 8789   4.989   4.824   2.753
 2930SOL    HW2 8790   5.023   4.770   2.615
 2931SOL     OW 8791   4.469   5.071   3.504
 2931SOL    HW1 8792   4.487   5.123   3.582
 2931SOL    HW2 8793   4.451   4.983   3.538
 2932SOL     OW 8794   1.304   1.705   2.900
 2932SOL    HW1 8795   1.285   1.783   2.848
 2932SOL    HW2 8796   1.398   1.709   2.915
 2933SOL     OW 8797   1.465   1.677   4.365
 2933SOL    HW1 8798   1.470   1.660   4.271
 2933SOL    HW2 8799   1.386   1.631   4.394
 2934SOL     OW 8800   2.087   2.671   0.097
 2934SOL    HW1 8801   2.014   2.615   0.123
 2934SOL    HW2 8802   2.046   2.748   0.058
 2935SOL     OW 8803   3.915   3.418   2.696
 2935SOL    HW1 8804   3.861   3.497   2.699
 2935SOL    HW2 8805   3.896   3.379   2.611
 2936SOL     OW 8806   3.256   3.554   1.058
 2936SOL    HW1 8807   3.283   3.574   0.968
 2936SOL    HW2 8808   3.271   3.636   1.106
 2937SOL     OW 8809   0.308   2.029   4.396
 2937SOL    HW1 8810   0.330   2.078   4.475
 2937SOL    HW2 8811   0.214   2.011   4.404
 2938SOL     OW 8812   0.458   3.986   0.647
 2938SOL    HW1 8813   0.375   3.949   0.614
 2938SOL    HW2 8814   0.483   4.050   0.580
 2939SOL     OW 8815   5.054   0.972   3.389
 2939SOL    HW1 8816   5.000   0.909   3.436
 2939SOL    HW2 8817   5.080   0.926   3.309
 2940SOL     OW 8818   0.896   0.971   1.836
 2940SOL    HW1 8819   0.868   1.000   1.749
 2940SOL    HW2 8820   0.838   0.898   1.857
 2941SOL     OW 8821   0.210   4.459   2.796
 2941SOL    HW1 8822   0.189   4.553   2.796
 2941SOL    HW2 8823   0.305   4.455   2.785
 2942SOL     OW 8824   0.398   5.003   2.504
 2942SOL    HW1 8825   0.321   5.046   2.467
 2942SOL    HW2 8826   0.438   5.069   2.561
 2943SOL     OW 8827   4.757   1.076   4.684
 2943SOL    HW1 8828   4.793   1.015   4.619
 2943SOL    HW2 8829   4.794   1.161   4.661
 2944SOL     OW 8830   3.182   4.951   4.874
 2944SOL    HW1 8831   3.232   5.032   4.882
 2944SOL    HW2 8832   3.091   4.979   4.865
 2945SOL     OW 8833   0.120   2.317   0.108
 2945SOL    HW1 8834   0.065   2.247   0.073
 2945SOL    HW2 8835   0.154   2.282   0.190
 2946SOL     OW 8836   5.127   2.514   1.332
 2946SOL    HW1 8837   5.079   2.490   1.252
 2946SOL    HW2 8838   5.120   2.609   1.335
 2947SOL     OW 8839   3.591   0.237   2.512
 2947SOL    HW1 8840   3.516   0.293   2.492
 2947SOL    HW2 8841   3.553   0.159   2.554
 2948SOL     OW 8842   2.835   1.748   3.640
 2948SOL    HW1 8843   2.917   1.715   3.604
 2948SOL    HW2 8844   2.840   1.728   3.734
 2949SOL     OW 8845   2.695   1.714   0.281
 2949SOL    HW1 8846   2.773   1.664   0.303
 2949SOL    HW2 8847   2.643   1.655   0.226
 2950SOL     OW 8848   4.493  -0.006   1.176
 2950SOL    HW1 8849   4.456  -0.061   1.106
 2950SOL    HW2 8850   4.468   0.083   1.152
 2951SOL     OW 8851   1.964   2.167   2.801
 2951SOL    HW1 8852   1.961   2.087   2.748
 2951SOL    HW2 8853   1.902   2.150   2.872
 2952SOL     OW 8854   1.275   0.420   4.290
 2952SOL    HW1 8855   1.193   0.416   4.339
 2952SOL    HW2 8856   1.292   0.329   4.264
 2953SOL     OW 8857   3.158   4.551   0.218
 2953SOL    HW1 8858   3.135   4.603   0.141
 2953SOL    HW2 8859   3.247   4.521   0.202
 2954SOL     OW 8860   3.763   1.362   4.882
 2954SOL    HW1 8861   3.681   1.385   4.837
 2954SOL    HW2 8862   3.735   1.326   4.966
 2955SOL     OW 8863   1.840   2.806   0.451
 2955SOL    HW1 8864   1.904   2.876   0.459
 2955SOL    HW2 8865   1.839   2.764   0.537
 2956SOL     OW 8866   0.763   0.613   4.176
 2956SOL    HW1 8867   0.782   0.678   4.244
 2956SOL    HW2 8868   0.689   0.648   4.128
 2957SOL     OW 8869   0.411   4.656   2.285
 2957SOL    HW1 8870   0.407   4.562   2.270
 2957SOL    HW2 8871   0.388   4.667   2.377
 2958SOL     OW 8872   2.923   4.912   3.892
 2958SOL    HW1 8873   2.980   4.839   3.915
 2958SOL    HW2 8874   2.951   4.984   3.949
 2959SOL     OW 8875   5.181   2.529   0.213
 2959SOL    HW1 8876   5.121   2.547   0.140
 2959SOL    HW2 8877   5.250   2.475   0.175
 2960SOL     OW 8878   0.213   5.032   2.141
 2960SOL    HW1 8879   0.233   5.036   2.234
 2960SOL    HW2 8880   0.157   5.108   2.125
 2961SOL     OW 8881   2.041   3.899   0.394
 2961SOL    HW1 8882   2.097   3.960   0.442
 2961SOL    HW2 8883   2.091   3.817   0.392
 2962SOL     OW 8884   1.491   0.445   0.405
 2962SOL    HW1 8885   1.469   0.509   0.473
 2962SOL    HW2 8886   1.407   0.404   0.383
 2963SOL     OW 8887   1.954   5.081   2.941
 2963SOL    HW1 8888   1.975   5.140   3.013
 2963SOL    HW2 8889   2.039   5.044   2.914
 2964SOL     OW 8890   4.243   0.704   2.360
 2964SOL    HW1 8891   4.313   0.654   2.400
 2964SOL    HW2 8892   4.206   0.755   2.432
 2965SOL     OW 8893   0.721   4.841   2.152
 2965SOL    HW1 8894   0.722   4.746   2.162
 2965SOL    HW2 8895   0.725   4.856   2.058
 2966SOL     OW 8896   4.365   1.915   1.842
 2966SOL    HW1 8897   4.361   1.829   1.799
 2966SOL    HW2 8898   4.431   1.963   1.793
 2967SOL     OW 8899   0.035   1.584   4.164
 2967SOL    HW1 8900   0.116   1.537   4.184
 2967SOL    HW2 8901  -0.024   1.517   4.129
 2968SOL     OW 8902   0.542   0.779   4.600
 2968SOL    HW1 8903   0.602   0.790   4.526
 2968SOL    HW2 8904   0.539   0.865   4.641
 2969SOL     OW 8905   1.482   3.829   3.209
 2969SOL    HW1 8906   1.505   3.741   3.240
 2969SOL    HW2 8907   1.494   3.885   3.285
 2970SOL     OW 8908   4.903   1.623   1.234
 2970SOL    HW1 8909   4.929   1.715   1.246
 2970SOL    HW2 8910   4.811   1.627   1.207
 2971SOL     OW 8911   1.326   3.719   2.775
 2971SOL    HW1 8912   1.232   3.722   2.758
 2971SOL    HW2 8913   1.334   3.679   2.862
 2972SOL     OW 8914   4.119   4.837   3.264
 2972SOL    HW1 8915   4.028   4.829   3.290
 2972SOL    HW2 8916   4.116   4.857   3.170
 2973SOL     OW 8917   1.200   2.173   1.881
 2973SOL    HW1 8918   1.270   2.166   1.947
 2973SOL    HW2 8919   1.246   2.189   1.799
 2974SOL     OW 8920   2.717   0.020   2.689
 2974SOL    HW1 8921   2.722   0.116   2.688
 2974SOL    HW2 8922   2.773  -0.006   2.762
 2975SOL     OW 8923   1.314   3.074   5.061
 2975SOL    HW1 8924   1.347   3.151   5.107
 2975SOL    HW2 8925   1.256   3.032   5.124
 2976SOL     OW 8926   3.221   1.553   3.737
 2976SOL    HW1 8927   3.293   1.514   3.688
 2976SOL    HW2 8928   3.189   1.481   3.792
 2977SOL     OW 8929   2.262   2.745   4.794
 2977SOL    HW1 8930   2.231   2.833   4.773
 2977SOL    HW2 8931   2.315   2.755   4.872
 2978SOL     OW 8932   3.204   0.732   3.758
 2978SOL    HW1 8933   3.213   0.781   3.840
 2978SOL    HW2 8934   3.156   0.790   3.700
 2979SOL     OW 8935   0.919   0.689   3.272
 2979SOL    HW1 8936   0.881   0.693   3.184
 2979SOL    HW2 8937   1.007   0.653   3.258
 2980SOL     OW 8938   1.952   2.763   2.060
 2980SOL    HW1 8939   1.969   2.776   1.967
 2980SOL    HW2 8940   1.979   2.673   2.078
 2981SOL     OW 8941   2.695   1.784   1.737
 2981SOL    HW1 8942   2.652   1.822   1.660
 2981SOL    HW2 8943   2.784   1.765   1.708
 2982SOL     OW 8944   2.185   3.856   3.394
 2982SOL    HW1 8945   2.168   3.768   3.360
 2982SOL    HW2 8946   2.254   3.890   3.337
 2983SOL     OW 8947   3.869   2.440   0.640
 2983SOL    HW1 8948   3.904   2.352   0.626
 2983SOL    HW2 8949   3.944   2.498   0.625
 2984SOL     OW 8950   0.700   1.988   4.443
 2984SOL    HW1 8951   0.625   1.956   4.493
 2984SOL    HW2 8952   0.773   1.934   4.474
 2985SOL     OW 8953   2.616   1.212   2.324
 2985SOL    HW1 8954   2.597   1.198   2.417
 2985SOL    HW2 8955   2.689   1.275   2.324
 2986SOL     OW 8956   0.721   4.307   1.933
 2986SOL    HW1 8957   0.727   4.240   2.000
 2986SOL    HW2 8958   0.646   4.361   1.959
 2987SOL     OW 8959   0.599   0.449   0.357
 2987SOL    HW1 8960   0.554   0.532   0.370
 2987SOL    HW2 8961   0.627   0.451   0.266
 2988SOL     OW 8962   1.795   4.028   1.255
 2988SOL    HW1 8963   1.700   4.012   1.253
 2988SOL    HW2 8964   1.803   4.118   1.285
 2989SOL     OW 8965   2.539   2.210   3.777
 2989SOL    HW1 8966   2.533   2.215   3.682
 2989SOL    HW2 8967   2.527   2.300   3.807
 2990SOL     OW 8968   2.274   0.534   0.905
 2990SOL    HW1 8969   2.355   0.538   0.855
 2990SOL    HW2 8970   2.300   0.498   0.990
 2991SOL     OW 8971   1.829   1.311   3.843
 2991SOL    HW1 8972   1.911   1.327   3.890
 2991SOL    HW2 8973   1.797   1.228   3.878
 2992SOL     OW 8974   3.665   4.776   2.762
 2992SOL    HW1 8975   3.714   4.695   2.775
 2992SOL    HW2 8976   3.615   4.761   2.682
 2993SOL     OW 8977   2.517   1.223   4.402
 2993SOL    HW1 8978   2.484   1.156   4.461
 2993SOL    HW2 8979   2.467   1.301   4.423
 2994SOL     OW 8980   1.431   1.843   1.603
 2994SOL    HW1 8981   1.444   1.787   1.526
 2994SOL    HW2 8982   1.344   1.881   1.589
 2995SOL     OW 8983   1.700   1.413   4.312
 2995SOL    HW1 8984   1.604   1.409   4.306
 2995SOL    HW2 8985   1.719   1.383   4.401
 2996SOL     OW 8986   0.560   2.896   4.735
 2996SOL    HW1 8987   0.543   2.981   4.776
 2996SOL    HW2 8988   0.617   2.851   4.797
 2997SOL     OW 8989   3.777   5.095   3.679
 2997SOL    HW1 8990   3.834   5.024   3.709
 2997SOL    HW2 8991   3.689   5.067   3.704
 2998SOL     OW 8992   3.946   2.067   5.054
 2998SOL    HW1 8993   3.910   1.986   5.089
 2998SOL    HW2 8994   4.039   2.063   5.075
 2999SOL     OW 8995   3.570   5.077   0.585
 2999SOL    HW1 8996   3.590   5.166   0.557
 2999SOL    HW2 8997   3.601   5.021   0.514
 3000SOL     OW 8998   4.769   0.977   1.577
 3000SOL    HW1 8999   4.745   1.051   1.520
 3000SOL    HW2 9000   4.690   0.922   1.578
 3001SOL     OW 9001   2.305   4.614   4.493
 3001SOL    HW1 9002   2.282   4.542   4.552
 3001SOL    HW2 9003   2.352   4.572   4.421
 3002SOL     OW 9004   3.874   2.938   3.300
 3002SOL    HW1 9005   3.884   2.883   3.377
 3002SOL    HW2 9006   3.927   3.016   3.319
 3003SOL     OW 9007   0.233   1.029   4.998
 3003SOL    HW1 9008   0.250   1.102   4.938
 3003SOL    HW2 9009   0.311   1.026   5.054
 3004SOL     OW 9010   2.401   3.850   1.310
 3004SOL    HW1 9011   2.438   3.893   1.387
 3004SOL    HW2 9012   2.310   3.879   1.307
 3005SOL     OW 9013   4.151   0.229   3.836
 3005SOL    HW1 9014   4.072   0.275   3.864
 3005SOL    HW2 9015   4.121   0.171   3.765
 3006SOL     OW 9016   2.818   1.405   2.291
 3006SOL    HW1 9017   2.779   1.473   2.237
 3006SOL    HW2 9018   2.903   1.388   2.250
 3007SOL     OW 9019   2.943   3.487   1.377
 3007SOL    HW1 9020   2.958   3.573   1.338
 3007SOL    HW2 9021   2.853   3.466   1.352
 3008SOL     OW 9022   3.423   4.501   4.842
 3008SOL    HW1 9023   3.404   4.519   4.934
 3008SOL    HW2 9024   3.379   4.570   4.794
 3009SOL     OW 9025   3.944   3.562   0.577
 3009SOL    HW1 9026   3.976   3.579   0.489
 3009SOL    HW2 9027   3.891   3.639   0.599
 3010SOL     OW 9028   0.188   1.444   2.854
 3010SOL    HW1 9029   0.182   1.365   2.906
 3010SOL    HW2 9030   0.235   1.418   2.774
 3011SOL     OW 9031   3.420   1.806   4.192
 3011SOL    HW1 9032   3.439   1.840   4.105
 3011SOL    HW2 9033   3.487   1.845   4.248
 3012SOL     OW 9034   1.122   3.293   0.762
 3012SOL    HW1 9035   1.107   3.246   0.844
 3012SOL    HW2 9036   1.107   3.385   0.784
 3013SOL     OW 9037   1.677   4.759   0.791
 3013SOL    HW1 9038   1.624   4.685   0.761
 3013SOL    HW2 9039   1.725   4.724   0.866
 3014SOL     OW 9040   1.739   5.160   4.702
 3014SOL    HW1 9041   1.830   5.182   4.685
 3014SOL    HW2 9042   1.729   5.170   4.797
 3015SOL     OW 9043   4.165   3.137   0.430
 3015SOL    HW1 9044   4.102   3.176   0.491
 3015SOL    HW2 9045   4.158   3.043   0.446
 3016SOL     OW 9046   3.644   2.662   1.274
 3016SOL    HW1 9047   3.603   2.748   1.265
 3016SOL    HW2 9048   3.688   2.665   1.359
 3017SOL     OW 9049   3.167   0.867   2.885
 3017SOL    HW1 9050   3.143   0.805   2.954
 3017SOL    HW2 9051   3.184   0.812   2.808
 3018SOL     OW 9052   1.170   3.021   1.012
 3018SOL    HW1 9053   1.224   2.979   1.078
 3018SOL    HW2 9054   1.101   2.957   0.992
 3019SOL     OW 9055   4.187   3.791   3.580
 3019SOL    HW1 9056   4.135   3.784   3.660
 3019SOL    HW2 9057   4.171   3.880   3.549
 3020SOL     OW 9058   2.770   3.490   2.065
 3020SOL    HW1 9059   2.703   3.443   2.114
 3020SOL    HW2 9060   2.733   3.502   1.978
 3021SOL     OW 9061   1.131   2.192   1.462
 3021SOL    HW1 9062   1.153   2.104   1.493
 3021SOL    HW2 9063   1.042   2.207   1.495
 3022SOL     OW 9064   4.921   4.278   4.244
 3022SOL    HW1 9065   4.936   4.283   4.149
 3022SOL    HW2 9066   4.953   4.192   4.268
 3023SOL     OW 9067   2.165   4.450   0.873
 3023SOL    HW1 9068   2.103   4.433   0.943
 3023SOL    HW2 9069   2.232   4.506   0.913
 3024SOL     OW 9070   0.775   4.143   1.510
 3024SOL    HW1 9071   0.692   4.103   1.485
 3024SOL    HW2 9072   0.798   4.102   1.594
 3025SOL     OW 9073   3.431   3.721   3.232
 3025SOL    HW1 9074   3.439   3.630   3.261
 3025SOL    HW2 9075   3.338   3.734   3.216
 3026SOL     OW 9076   3.320   2.962   3.609
 3026SOL    HW1 9077   3.374   3.031   3.647
 3026SOL    HW2 9078   3.375   2.884   3.611
 3027SOL     OW 9079   2.497   4.634   1.596
 3027SOL    HW1 9080   2.490   4.641   1.691
 3027SOL    HW2 9081   2.501   4.540   1.579
 3028SOL     OW 9082   2.412   0.395   1.104
 3028SOL    HW1 9083   2.415   0.299   1.106
 3028SOL    HW2 9084   2.485   0.421   1.048
 3029SOL     OW 9085   1.238   3.690   4.137
 3029SOL    HW1 9086   1.319   3.656   4.175
 3029SOL    HW2 9087   1.236   3.782   4.163
 3030SOL     OW 9088   5.215   2.730   2.890
 3030SOL    HW1 9089   5.244   2.812   2.851
 3030SOL    HW2 9090   5.119   2.734   2.887
 3031SOL     OW 9091   4.729   2.044   3.352
 3031SOL    HW1 9092   4.638   2.013   3.354
 3031SOL    HW2 9093   4.729   2.116   3.290
 3032SOL     OW 9094   5.097   3.171   1.225
 3032SOL    HW1 9095   5.014   3.203   1.260
 3032SOL    HW2 9096   5.072   3.129   1.142
 3033SOL     OW 9097   0.238   3.672   5.044
 3033SOL    HW1 9098   0.248   3.581   5.072
 3033SOL    HW2 9099   0.185   3.713   5.113
 3034SOL     OW 9100   1.366   4.625   4.052
 3034SOL    HW1 9101   1.296   4.563   4.028
 3034SOL    HW2 9102   1.359   4.634   4.147
 3035SOL     OW 9103   0.732   2.685   3.514
 3035SOL    HW1 9104   0.826   2.671   3.525
 3035SOL    HW2 9105   0.694   2.661   3.599
 3036SOL     OW 9106   0.095   3.652   3.391
 3036SOL    HW1 9107   0.154   3.578   3.408
 3036SOL    HW2 9108   0.009   3.612   3.377
 3037SOL     OW 9109   3.979   1.107   5.141
 3037SOL    HW1 9110   3.901   1.071   5.097
 3037SOL    HW2 9111   4.033   1.142   5.070
 3038SOL     OW 9112   5.060   2.973   3.426
 3038SOL    HW1 9113   5.149   2.950   3.398
 3038SOL    HW2 9114   5.072   3.013   3.512
 3039SOL     OW 9115   3.167   2.010   0.379
 3039SOL    HW1 9116   3.146   1.990   0.470
 3039SOL    HW2 9117   3.263   2.010   0.376
 3040SOL     OW 9118   4.391   4.954   3.989
 3040SOL    HW1 9119   4.425   4.865   3.977
 3040SOL    HW2 9120   4.461   5.001   4.035
 3041SOL     OW 9121   1.846   2.617   0.262
 3041SOL    HW1 9122   1.893   2.555   0.318
 3041SOL    HW2 9123   1.845   2.699   0.312
 3042SOL     OW 9124   2.049   0.956   0.918
 3042SOL    HW1 9125   2.089   0.969   0.832
 3042SOL    HW2 9126   2.026   0.863   0.920
 3043SOL     OW 9127   2.933   0.913   1.989
 3043SOL    HW1 9128   2.983   0.907   2.070
 3043SOL    HW2 9129   2.851   0.956   2.014
 3044SOL     OW 9130   3.965   2.125   0.896
 3044SOL    HW1 9131   3.890   2.117   0.837
 3044SOL    HW2 9132   4.041   2.120   0.838
 3045SOL     OW 9133   2.150   3.980   1.330
 3045SOL    HW1 9134   2.074   3.931   1.297
 3045SOL    HW2 9135   2.113   4.050   1.383
 3046SOL     OW 9136   0.304   1.860   3.987
 3046SOL    HW1 9137   0.342   1.785   4.033
 3046SOL    HW2 9138   0.210   1.841   3.985
 3047SOL     OW 9139   0.495   4.367   1.002
 3047SOL    HW1 9140   0.406   4.363   1.037
 3047SOL    HW2 9141   0.551   4.365   1.079
 3048SOL     OW 9142   1.098   1.366   0.903
 3048SOL    HW1 9143   1.004   1.377   0.890
 3048SOL    HW2 9144   1.118   1.281   0.863
 3049SOL     OW 9145   1.056   4.166   4.797
 3049SOL    HW1 9146   1.031   4.237   4.857
 3049SOL    HW2 9147   1.077   4.092   4.855
 3050SOL     OW 9148   4.491   4.517   4.216
 3050SOL    HW1 9149   4.541   4.468   4.281
 3050SOL    HW2 9150   4.415   4.462   4.198
 3051SOL     OW 9151   3.792   4.771   3.316
 3051SOL    HW1 9152   3.728   4.738   3.378
 3051SOL    HW2 9153   3.748   4.763   3.231
 3052SOL     OW 9154   4.912   0.614   1.417
 3052SOL    HW1 9155   4.869   0.528   1.408
 3052SOL    HW2 9156   4.933   0.639   1.327
 3053SOL     OW 9157   3.104   3.242   0.710
 3053SOL    HW1 9158   3.185   3.232   0.761
 3053SOL    HW2 9159   3.110   3.330   0.674
 3054SOL     OW 9160   5.008   4.263   4.785
 3054SOL    HW1 9161   4.952   4.311   4.724
 3054SOL    HW2 9162   5.091   4.253   4.739
 3055SOL     OW 9163   1.378   0.115   4.800
 3055SOL    HW1 9164   1.384   0.203   4.837
 3055SOL    HW2 9165   1.305   0.074   4.847
 3056SOL     OW 9166   4.767   3.384   2.419
 3056SOL    HW1 9167   4.761   3.389   2.324
 3056SOL    HW2 9168   4.835   3.448   2.443
 3057SOL     OW 9169   2.663   4.380   0.287
 3057SOL    HW1 9170   2.650   4.466   0.326
 3057SOL    HW2 9171   2.575   4.351   0.263
 3058SOL     OW 9172   2.126   0.035   0.457
 3058SOL    HW1 9173   2.189   0.070   0.519
 3058SOL    HW2 9174   2.144   0.082   0.375
 3059SOL     OW 9175   4.474   4.446   1.502
 3059SOL    HW1 9176   4.535   4.508   1.543
 3059SOL    HW2 9177   4.393   4.454   1.553
 3060SOL     OW 9178   2.323   1.933   1.319
 3060SOL    HW1 9179   2.412   1.932   1.282
 3060SOL    HW2 9180   2.282   1.854   1.284
 3061SOL     OW 9181   0.457   2.653   4.382
 3061SOL    HW1 9182   0.418   2.732   4.420
 3061SOL    HW2 9183   0.412   2.641   4.299
 3062SOL     OW 9184   1.785   1.712   1.259
 3062SOL    HW1 9185   1.732   1.643   1.300
 3062SOL    HW2 9186   1.768   1.702   1.165
 3063SOL     OW 9187   0.571   1.538   1.168
 3063SOL    HW1 9188   0.654   1.551   1.214
 3063SOL    HW2 9189   0.523   1.475   1.222
 3064SOL     OW 9190   1.064   1.442   3.771
 3064SOL    HW1 9191   1.008   1.364   3.763
 3064SOL    HW2 9192   1.153   1.406   3.776
 3065SOL     OW 9193   0.911   3.145   4.388
 3065SOL    HW1 9194   0.818   3.145   4.412
 3065SOL    HW2 9195   0.955   3.102   4.462
 3066SOL     OW 9196   4.563   2.161   0.198
 3066SOL    HW1 9197   4.561   2.189   0.290
 3066SOL    HW2 9198   4.472   2.142   0.177
 3067SOL     OW 9199   4.451   4.058   0.143
 3067SOL    HW1 9200   4.374   4.049   0.200
 3067SOL    HW2 9201   4.466   3.969   0.110
 3068SOL     OW 9202   2.302   1.430   0.256
 3068SOL    HW1 9203   2.289   1.514   0.299
 3068SOL    HW2 9204   2.396   1.413   0.265
 3069SOL     OW 9205   0.171   3.375   3.591
 3069SOL    HW1 9206   0.201   3.302   3.645
 3069SOL    HW2 9207   0.173   3.341   3.502
 3070SOL     OW 9208   2.570   2.040   4.012
 3070SOL    HW1 9209   2.572   2.131   4.041
 3070SOL    HW2 9210   2.556   2.045   3.917
 3071SOL     OW 9211   3.773   2.927   3.035
 3071SOL    HW1 9212   3.836   2.878   2.982
 3071SOL    HW2 9213   3.802   2.913   3.125
 3072SOL     OW 9214   1.004   1.686   2.702
 3072SOL    HW1 9215   1.084   1.647   2.735
 3072SOL    HW2 9216   1.024   1.780   2.697
 3073SOL     OW 9217   1.343   1.070   3.175
 3073SOL    HW1 9218   1.404   1.001   3.148
 3073SOL    HW2 9219   1.278   1.025   3.229
 3074SOL     OW 9220   1.123   4.205   0.796
 3074SOL    HW1 9221   1.100   4.158   0.715
 3074SOL    HW2 9222   1.041   4.210   0.845
 3075SOL     OW 9223   4.840   0.818   2.637
 3075SOL    HW1 9224   4.814   0.886   2.575
 3075SOL    HW2 9225   4.906   0.767   2.590
 3076SOL     OW 9226   2.214   1.262   3.523
 3076SOL    HW1 9227   2.181   1.300   3.605
 3076SOL    HW2 9228   2.142   1.273   3.461
 3077SOL     OW 9229   2.221   2.121   2.372
 3077SOL    HW1 9230   2.188   2.082   2.291
 3077SOL    HW2 9231   2.160   2.193   2.391
 3078SOL     OW 9232   1.510   3.609   4.227
 3078SOL    HW1 9233   1.545   3.673   4.288
 3078SOL    HW2 9234   1.530   3.524   4.266
 3079SOL     OW 9235   4.040   4.811   1.372
 3079SOL    HW1 9236   4.025   4.720   1.346
 3079SOL    HW2 9237   3.958   4.856   1.351
 3080SOL     OW 9238   0.440   3.367   4.400
 3080SOL    HW1 9239   0.506   3.429   4.431
 3080SOL    HW2 9240   0.386   3.417   4.339
 3081SOL     OW 9241   2.900   3.665   2.674
 3081SOL    HW1 9242   2.862   3.752   2.668
 3081SOL    HW2 9243   2.845   3.611   2.617
 3082SOL     OW 9244   3.860   0.537   3.115
 3082SOL    HW1 9245   3.930   0.471   3.116
 3082SOL    HW2 9246   3.890   0.602   3.052
 3083SOL     OW 9247   2.149   0.192   4.945
 3083SOL    HW1 9248   2.062   0.168   4.977
 3083SOL    HW2 9249   2.154   0.287   4.958
 3084SOL     OW 9250   2.047   3.683   3.651
 3084SOL    HW1 9251   2.110   3.746   3.616
 3084SOL    HW2 9252   2.027   3.716   3.738
 3085SOL     OW 9253   0.590   2.839   3.017
 3085SOL    HW1 9254   0.509   2.816   2.971
 3085SOL    HW2 9255   0.565   2.848   3.109
 3086SOL     OW 9256   0.872   2.005   0.999
 3086SOL    HW1 9257   0.935   2.075   1.017
 3086SOL    HW2 9258   0.876   1.993   0.904
 3087SOL     OW 9259   0.834   2.318   1.909
 3087SOL    HW1 9260   0.835   2.235   1.957
 3087SOL    HW2 9261   0.760   2.309   1.848
 3088SOL     OW 9262   3.497   0.754   5.104
 3088SOL    HW1 9263   3.520   0.792   5.188
 3088SOL    HW2 9264   3.582   0.732   5.064
 3089SOL     OW 9265   3.611   3.177   4.269
 3089SOL    HW1 9266   3.521   3.174   4.234
 3089SOL    HW2 9267   3.606   3.241   4.340
 3090SOL     OW 9268   4.862   0.795   3.476
 3090SOL    HW1 9269   4.865   0.738   3.553
 3090SOL    HW2 9270   4.821   0.876   3.507
 3091SOL     OW 9271   3.188   3.703   2.643
 3091SOL    HW1 9272   3.095   3.684   2.636
 3091SOL    HW2 9273   3.231   3.620   2.621
 3092SOL     OW 9274   4.968   3.763   1.024
 3092SOL    HW1 9275   4.934   3.815   0.952
 3092SOL    HW2 9276   5.063   3.780   1.023
 3093SOL     OW 9277   5.138   2.954   0.426
 3093SOL    HW1 9278   5.157   2.867   0.461
 3093SOL    HW2 9279   5.129   2.940   0.332
 3094SOL     OW 9280   4.086   3.290   5.118
 3094SOL    HW1 9281   4.001   3.325   5.092
 3094SOL    HW2 9282   4.072   3.261   5.209
 3095SOL     OW 9283   3.988   5.120   5.131
 3095SOL    HW1 9284   3.929   5.075   5.070
 3095SOL    HW2 9285   3.999   5.059   5.204
 3096SOL     OW 9286   2.402   0.579   4.002
 3096SOL    HW1 9287   2.315   0.540   4.008
 3096SOL    HW2 9288   2.393   0.665   4.044
 3097SOL     OW 9289   4.372   0.280   4.563
 3097SOL    HW1 9290   4.392   0.371   4.588
 3097SOL    HW2 9291   4.279   0.280   4.543
 3098SOL     OW 9292   0.678   2.452   1.540
 3098SOL    HW1 9293   0.603   2.395   1.523
 3098SOL    HW2 9294   0.670   2.476   1.632
 3099SOL     OW 9295   0.786   3.514   1.598
 3099SOL    HW1 9296   0.848   3.583   1.621
 3099SOL    HW2 9297   0.769   3.528   1.505
 3100SOL     OW 9298   3.079   0.161   1.582
 3100SOL    HW1 9299   3.040   0.223   1.643
 3100SOL    HW2 9300   3.022   0.163   1.505
 3101SOL     OW 9301   2.947   2.672   1.026
 3101SOL    HW1 9302   2.890   2.718   1.087
 3101SOL    HW2 9303   3.005   2.620   1.082
 3102SOL     OW 9304   5.098   0.976   2.627
 3102SOL    HW1 9305   5.054   0.949   2.547
 3102SOL    HW2 9306   5.184   1.007   2.598
 3103SOL     OW 9307   2.628   2.717   3.879
 3103SOL    HW1 9308   2.622   2.806   3.843
 3103SOL    HW2 9309   2.697   2.675   3.827
 3104SOL     OW 9310   3.664   0.932   1.166
 3104SOL    HW1 9311   3.708   0.934   1.080
 3104SOL    HW2 9312   3.646   0.839   1.182
 3105SOL     OW 9313   1.429   2.582   4.681
 3105SOL    HW1 9314   1.352   2.636   4.667
 3105SOL    HW2 9315   1.491   2.638   4.726
 3106SOL     OW 9316   3.111   3.989   3.864
 3106SOL    HW1 9317   3.168   3.944   3.927
 3106SOL    HW2 9318   3.049   3.921   3.836
 3107SOL     OW 9319   4.372   2.407   0.835
 3107SOL    HW1 9320   4.279   2.390   0.848
 3107SOL    HW2 9321   4.392   2.480   0.894
 3108SOL     OW 9322   1.648   2.038   2.619
 3108SOL    HW1 9323   1.594   2.093   2.675
 3108SOL    HW2 9324   1.688   1.975   2.679
 3109SOL     OW 9325   1.443   4.066   4.950
 3109SOL    HW1 9326   1.527   4.083   4.992
 3109SOL    HW2 9327   1.413   4.152   4.921
 3110SOL     OW 9328   1.113   0.125   3.587
 3110SOL    HW1 9329   1.163   0.043   3.583
 3110SOL    HW2 9330   1.067   0.129   3.503
 3111SOL     OW 9331   3.876   5.182   1.149
 3111SOL    HW1 9332   3.879   5.252   1.085
 3111SOL    HW2 9333   3.789   5.143   1.138
 3112SOL     OW 9334   3.418   2.040   3.541
 3112SOL    HW1 9335   3.489   2.033   3.478
 3112SOL    HW2 9336   3.460   2.063   3.623
 3113SOL     OW 9337   0.752   1.424   1.720
 3113SOL    HW1 9338   0.675   1.466   1.682
 3113SOL    HW2 9339   0.725   1.400   1.809
 3114SOL     OW 9340   4.554   3.404   3.403
 3114SOL    HW1 9341   4.465   3.371   3.390
 3114SOL    HW2 9342   4.542   3.486   3.452
 3115SOL     OW 9343   1.699   4.434   3.195
 3115SOL    HW1 9344   1.656   4.384   3.263
 3115SOL    HW2 9345   1.784   4.392   3.184
 3116SOL     OW 9346   1.592   4.279   2.971
 3116SOL    HW1 9347   1.609   4.189   3.002
 3116SOL    HW2 9348   1.638   4.334   3.034
 3117SOL     OW 9349   3.742   0.377   1.570
 3117SOL    HW1 9350   3.752   0.284   1.548
 3117SOL    HW2 9351   3.650   0.396   1.554
 3118SOL     OW 9352   1.386   0.024   2.439
 3118SOL    HW1 9353   1.456   0.001   2.378
 3118SOL    HW2 9354   1.428   0.023   2.525
 3119SOL     OW 9355   0.607   3.715   3.179
 3119SOL    HW1 9356   0.692   3.752   3.203
 3119SOL    HW2 9357   0.625   3.662   3.101
 3120SOL     OW 9358   1.206   3.925   4.925
 3120SOL    HW1 9359   1.198   3.840   4.968
 3120SOL    HW2 9360   1.297   3.952   4.942
 3121SOL     OW 9361   2.398   4.418   3.169
 3121SOL    HW1 9362   2.332   4.358   3.136
 3121SOL    HW2 9363   2.405   4.486   3.101
 3122SOL     OW 9364   1.211   4.440   4.327
 3122SOL    HW1 9365   1.118   4.452   4.310
 3122SOL    HW2 9366   1.228   4.490   4.406
 3123SOL     OW 9367   4.178   3.425   1.467
 3123SOL    HW1 9368   4.198   3.384   1.551
 3123SOL    HW2 9369   4.216   3.366   1.401
 3124SOL     OW 9370   1.085   4.862   5.021
 3124SOL    HW1 9371   0.996   4.876   4.988
 3124SOL    HW2 9372   1.084   4.898   5.109
 3125SOL     OW 9373   2.711   5.096   0.832
 3125SOL    HW1 9374   2.786   5.063   0.781
 3125SOL    HW2 9375   2.708   5.039   0.909
 3126SOL     OW 9376   2.079   1.130   4.670
 3126SOL    HW1 9377   1.999   1.082   4.652
 3126SOL    HW2 9378   2.051   1.221   4.681
 3127SOL     OW 9379   3.937   4.520   3.717
 3127SOL    HW1 9380   4.003   4.590   3.720
 3127SOL    HW2 9381   3.980   4.448   3.671
 3128SOL     OW 9382   2.653   0.748   2.273
 3128SOL    HW1 9383   2.651   0.814   2.203
 3128SOL    HW2 9384   2.740   0.708   2.266
 3129SOL     OW 9385   2.475   0.814   1.135
 3129SOL    HW1 9386   2.510   0.854   1.055
 3129SOL    HW2 9387   2.384   0.844   1.138
 3130SOL     OW 9388   4.615   2.044   3.797
 3130SOL    HW1 9389   4.525   2.029   3.769
 3130SOL    HW2 9390   4.641   1.961   3.839
 3131SOL     OW 9391   1.485   5.220   3.616
 3131SOL    HW1 9392   1.460   5.170   3.537
 3131SOL    HW2 9393   1.431   5.182   3.685
 3132SOL     OW 9394   0.487   4.335   0.323
 3132SOL    HW1 9395   0.462   4.404   0.261
 3132SOL    HW2 9396   0.493   4.256   0.269
 3133SOL     OW 9397   3.541   4.136   2.688
 3133SOL    HW1 9398   3.492   4.056   2.666
 3133SOL    HW2 9399   3.611   4.106   2.746
 3134SOL     OW 9400   4.448   4.729   5.152
 3134SOL    HW1 9401   4.390   4.797   5.187
 3134SOL    HW2 9402   4.399   4.648   5.160
 3135SOL     OW 9403   0.940   4.044   4.570
 3135SOL    HW1 9404   0.974   4.114   4.625
 3135SOL    HW2 9405   0.965   3.963   4.613
 3136SOL     OW 9406   2.908   3.774   2.025
 3136SOL    HW1 9407   2.991   3.738   2.059
 3136SOL    HW2 9408   2.932   3.860   1.990
 3137SOL     OW 9409   1.898   1.441   0.319
 3137SOL    HW1 9410   1.938   1.518   0.278
 3137SOL    HW2 9411   1.832   1.411   0.256
 3138SOL     OW 9412   4.741   2.633   1.968
 3138SOL    HW1 9413   4.802   2.706   1.979
 3138SOL    HW2 9414   4.780   2.562   2.020
 3139SOL     OW 9415   1.500   3.264   0.441
 3139SOL    HW1 9416   1.584   3.219   0.445
 3139SOL    HW2 9417   1.453   3.233   0.518
 3140SOL     OW 9418   4.219   3.720   2.681
 3140SOL    HW1 9419   4.290   3.725   2.617
 3140SOL    HW2 9420   4.181   3.633   2.667
 3141SOL     OW 9421   0.883   1.715   3.874
 3141SOL    HW1 9422   0.906   1.624   3.859
 3141SOL    HW2 9423   0.814   1.733   3.810
 3142SOL     OW 9424   3.916   1.976   4.789
 3142SOL    HW1 9425   3.834   1.984   4.740
 3142SOL    HW2 9426   3.898   2.019   4.873
 3143SOL     OW 9427   4.043   2.486   3.319
 3143SOL    HW1 9428   3.958   2.523   3.294
 3143SOL    HW2 9429   4.023   2.397   3.348
 3144SOL     OW 9430   3.085   2.493   4.231
 3144SOL    HW1 9431   3.077   2.586   4.212
 3144SOL    HW2 9432   3.001   2.469   4.272
 3145SOL     OW 9433   4.903   2.432   3.634
 3145SOL    HW1 9434   4.935   2.483   3.559
 3145SOL    HW2 9435   4.948   2.471   3.710
 3146SOL     OW 9436   0.511   1.094   2.965
 3146SOL    HW1 9437   0.576   1.111   3.033
 3146SOL    HW2 9438   0.515   1.171   2.908
 3147SOL     OW 9439   3.301   1.952   1.997
 3147SOL    HW1 9440   3.351   1.901   2.060
 3147SOL    HW2 9441   3.217   1.906   1.991
 3148SOL     OW 9442   0.586   2.488   3.735
 3148SOL    HW1 9443   0.549   2.399   3.730
 3148SOL    HW2 9444   0.527   2.535   3.794
 3149SOL     OW 9445   2.250   2.383   1.324
 3149SOL    HW1 9446   2.210   2.299   1.345
 3149SOL    HW2 9447   2.218   2.443   1.391
 3150SOL     OW 9448   0.714   4.949   2.426
 3150SOL    HW1 9449   0.733   5.040   2.407
 3150SOL    HW2 9450   0.695   4.910   2.340
 3151SOL     OW 9451   2.379   1.138   2.166
 3151SOL    HW1 9452   2.368   1.143   2.071
 3151SOL    HW2 9453   2.465   1.175   2.183
 3152SOL     OW 9454   0.460   3.890   4.276
 3152SOL    HW1 9455   0.479   3.871   4.368
 3152SOL    HW2 9456   0.369   3.919   4.276
 3153SOL     OW 9457   0.773   2.805   0.652
 3153SOL    HW1 9458   0.748   2.776   0.565
 3153SOL    HW2 9459   0.727   2.746   0.712
 3154SOL     OW 9460   4.216   0.255   1.902
 3154SOL    HW1 9461   4.130   0.257   1.944
 3154SOL    HW2 9462   4.238   0.348   1.889
 3155SOL     OW 9463   3.148   2.606   0.110
 3155SOL    HW1 9464   3.078   2.553   0.149
 3155SOL    HW2 9465   3.215   2.610   0.179
 3156SOL     OW 9466   4.257   4.466   2.826
 3156SOL    HW1 9467   4.321   4.403   2.793
 3156SOL    HW2 9468   4.172   4.424   2.812
 3157SOL     OW 9469   3.016   0.177   3.924
 3157SOL    HW1 9470   3.022   0.178   3.829
 3157SOL    HW2 9471   3.048   0.263   3.951
 3158SOL     OW 9472   1.104   4.431   1.650
 3158SOL    HW1 9473   1.032   4.383   1.689
 3158SOL    HW2 9474   1.112   4.510   1.704
 3159SOL     OW 9475   0.740   0.781   2.459
 3159SOL    HW1 9476   0.813   0.809   2.514
 3159SOL    HW2 9477   0.702   0.863   2.426
 3160SOL     OW 9478   1.954   3.530   1.154
 3160SOL    HW1 9479   1.950   3.525   1.059
 3160SOL    HW2 9480   1.888   3.595   1.178
 3161SOL     OW 9481   1.174   0.278   4.579
 3161SOL    HW1 9482   1.209   0.321   4.657
 3161SOL    HW2 9483   1.220   0.194   4.575
 3162SOL     OW 9484   3.445   3.842   2.259
 3162SOL    HW1 9485   3.528   3.875   2.224
 3162SOL    HW2 9486   3.378   3.896   2.218
 3163SOL     OW 9487   2.139   1.859   3.262
 3163SOL    HW1 9488   2.218   1.816   3.229
 3163SOL    HW2 9489   2.129   1.936   3.205
 3164SOL     OW 9490   0.787   2.586   1.973
 3164SOL    HW1 9491   0.734   2.610   1.897
 3164SOL    HW2 9492   0.797   2.492   1.967
 3165SOL     OW 9493   3.809   1.126   1.567
 3165SOL    HW1 9494   3.812   1.049   1.623
 3165SOL    HW2 9495   3.753   1.188   1.614
 3166SOL     OW 9496   4.174   0.328   3.515
 3166SOL    HW1 9497   4.092   0.331   3.466
 3166SOL    HW2 9498   4.197   0.235   3.516
 3167SOL     OW 9499   3.438   4.517   0.523
 3167SOL    HW1 9500   3.497   4.536   0.596
 3167SOL    HW2 9501   3.353   4.549   0.551
 3168SOL     OW 9502   2.818   3.563   4.723
 3168SOL    HW1 9503   2.825   3.575   4.818
 3168SOL    HW2 9504   2.744   3.503   4.712
 3169SOL     OW 9505   4.212   0.635   3.543
 3169SOL    HW1 9506   4.180   0.545   3.542
 3169SOL    HW2 9507   4.260   0.643   3.626
 3170SOL     OW 9508   1.445   3.229   2.497
 3170SOL    HW1 9509   1.387   3.241   2.572
 3170SOL    HW2 9510   1.517   3.176   2.531
 3171SOL     OW 9511   1.792   2.767   1.217
 3171SOL    HW1 9512   1.700   2.791   1.205
 3171SOL    HW2 9513   1.798   2.677   1.184
 3172SOL     OW 9514   3.310   0.854   0.559
 3172SOL    HW1 9515   3.287   0.947   0.564
 3172SOL    HW2 9516   3.403   0.853   0.538
 3173SOL     OW 9517   1.884   4.124   4.651
 3173SOL    HW1 9518   1.906   4.103   4.742
 3173SOL    HW2 9519   1.927   4.208   4.635
 3174SOL     OW 9520   1.900   2.472   2.801
 3174SOL    HW1 9521   1.892   2.558   2.758
 3174SOL    HW2 9522   1.885   2.409   2.731
 3175SOL     OW 9523   5.085   1.680   3.633
 3175SOL    HW1 9524   5.057   1.645   3.549
 3175SOL    HW2 9525   5.175   1.650   3.643
 3176SOL     OW 9526   3.736   3.172   5.055
 3176SOL    HW1 9527   3.773   3.118   4.985
 3176SOL    HW2 9528   3.767   3.260   5.036
 3177SOL     OW 9529   0.602   1.169   1.292
 3177SOL    HW1 9530   0.615   1.121   1.374
 3177SOL    HW2 9531   0.552   1.247   1.318
 3178SOL     OW 9532   0.118   4.825   2.364
 3178SOL    HW1 9533   0.137   4.766   2.292
 3178SOL    HW2 9534   0.197   4.824   2.417
 3179SOL     OW 9535   1.656   3.182   5.067
 3179SOL    HW1 9536   1.638   3.229   5.148
 3179SOL    HW2 9537   1.748   3.157   5.074
 3180SOL     OW 9538   2.005   0.195   1.523
 3180SOL    HW1 9539   1.958   0.250   1.461
 3180SOL    HW2 9540   2.098   0.216   1.508
 3181SOL     OW 9541   2.403   1.490   3.340
 3181SOL    HW1 9542   2.322   1.460   3.382
 3181SOL    HW2 9543   2.393   1.586   3.336
 3182SOL     OW 9544   0.846   1.184   2.386
 3182SOL    HW1 9545   0.802   1.192   2.471
 3182SOL    HW2 9546   0.790   1.125   2.336
 3183SOL     OW 9547   3.015   1.885   2.848
 3183SOL    HW1 9548   3.077   1.813   2.862
 3183SOL    HW2 9549   3.061   1.963   2.878
 3184SOL     OW 9550   0.794   2.716   0.985
 3184SOL    HW1 9551   0.784   2.635   1.035
 3184SOL    HW2 9552   0.733   2.706   0.912
 3185SOL     OW 9553   3.833   1.804   1.277
 3185SOL    HW1 9554   3.885   1.794   1.197
 3185SOL    HW2 9555   3.762   1.862   1.251
 3186SOL     OW 9556   1.660   3.564   2.157
 3186SOL    HW1 9557   1.658   3.551   2.252
 3186SOL    HW2 9558   1.722   3.499   2.125
 3187SOL     OW 9559   0.910   3.409   4.498
 3187SOL    HW1 9560   0.976   3.466   4.459
 3187SOL    HW2 9561   0.913   3.329   4.446
 3188SOL     OW 9562   2.984   3.338   2.576
 3188SOL    HW1 9563   3.059   3.395   2.556
 3188SOL    HW2 9564   3.000   3.309   2.666
 3189SOL     OW 9565   1.309   3.670   0.138
 3189SOL    HW1 9566   1.258   3.641   0.213
 3189SOL    HW2 9567   1.391   3.701   0.175
 3190SOL     OW 9568   0.922   3.528   4.774
 3190SOL    HW1 9569   0.909   3.489   4.688
 3190SOL    HW2 9570   0.988   3.472   4.816
 3191SOL     OW 9571   3.672   3.357   2.100
 3191SOL    HW1 9572   3.618   3.413   2.046
 3191SOL    HW2 9573   3.748   3.412   2.123
 3192SOL     OW 9574   2.277   0.345   1.970
 3192SOL    HW1 9575   2.269   0.320   2.062
 3192SOL    HW2 9576   2.230   0.277   1.922
 3193SOL     OW 9577   1.560   0.645   0.976
 3193SOL    HW1 9578   1.594   0.733   0.962
 3193SOL    HW2 9579   1.624   0.587   0.935
 3194SOL     OW 9580   1.824   1.034   2.391
 3194SOL    HW1 9581   1.784   1.059   2.308
 3194SOL    HW2 9582   1.803   1.106   2.450
 3195SOL     OW 9583   1.115   1.137   0.724
 3195SOL    HW1 9584   1.139   1.046   0.708
 3195SOL    HW2 9585   1.187   1.188   0.686
 3196SOL     OW 9586   4.809   4.763   1.935
 3196SOL    HW1 9587   4.731   4.798   1.978
 3196SOL    HW2 9588   4.857   4.840   1.906
 3197SOL     OW 9589   0.892   2.856   1.964
 3197SOL    HW1 9590   0.927   2.871   2.052
 3197SOL    HW2 9591   0.831   2.783   1.975
 3198SOL     OW 9592   3.509   3.753   1.591
 3198SOL    HW1 9593   3.576   3.689   1.615
 3198SOL    HW2 9594   3.461   3.712   1.519
 3199SOL     OW 9595   3.521   2.318   2.472
 3199SOL    HW1 9596   3.510   2.228   2.501
 3199SOL    HW2 9597   3.567   2.362   2.544
 3200SOL     OW 9598   1.238   0.325   3.974
 3200SOL    HW1 9599   1.198   0.250   4.018
 3200SOL    HW2 9600   1.251   0.296   3.884
 3201SOL     OW 9601   3.645   5.142   3.399
 3201SOL    HW1 9602   3.704   5.180   3.464
 3201SOL    HW2 9603   3.601   5.070   3.444
 3202SOL     OW 9604   1.416   3.166   0.921
 3202SOL    HW1 9605   1.331   3.133   0.949
 3202SOL    HW2 9606   1.475   3.144   0.993
 3203SOL     OW 9607   0.160   2.745   1.578
 3203SOL    HW1 9608   0.106   2.757   1.656
 3203SOL    HW2 9609   0.159   2.830   1.535
 3204SOL     OW 9610   3.775   4.696   1.405
 3204SOL    HW1 9611   3.698   4.652   1.440
 3204SOL    HW2 9612   3.845   4.673   1.465
 3205SOL     OW 9613   1.110   4.504   2.598
 3205SOL    HW1 9614   1.023   4.530   2.568
 3205SOL    HW2 9615   1.094   4.441   2.669
 3206SOL     OW 9616   0.565   4.765   1.602
 3206SOL    HW1 9617   0.489   4.823   1.604
 3206SOL    HW2 9618   0.585   4.753   1.509
 3207SOL     OW 9619   4.765   4.095   4.808
 3207SOL    HW1 9620   4.765   4.082   4.713
 3207SOL    HW2 9621   4.834   4.159   4.823
 3208SOL     OW 9622   3.530   4.758   0.407
 3208SOL    HW1 9623   3.607   4.727   0.359
 3208SOL    HW2 9624   3.477   4.680   0.420
 3209SOL     OW 9625   4.829   2.069   3.610
 3209SOL    HW1 9626   4.762   2.021   3.660
 3209SOL    HW2 9627   4.808   2.051   3.519
 3210SOL     OW 9628   4.613   4.759   1.468
 3210SOL    HW1 9629   4.708   4.762   1.457
 3210SOL    HW2 9630   4.599   4.753   1.562
 3211SOL     OW 9631   0.036   1.184   1.628
 3211SOL    HW1 9632   0.098   1.256   1.635
 3211SOL    HW2 9633   0.067   1.133   1.552
 3212SOL     OW 9634   2.746   4.652   0.536
 3212SOL    HW1 9635   2.799   4.595   0.480
 3212SOL    HW2 9636   2.656   4.622   0.522
 3213SOL     OW 9637   0.822   1.626   0.798
 3213SOL    HW1 9638   0.818   1.656   0.889
 3213SOL    HW2 9639   0.809   1.532   0.803
 3214SOL     OW 9640   4.698   0.575   3.853
 3214SOL    HW1 9641   4.736   0.530   3.778
 3214SOL    HW2 9642   4.771   0.591   3.912
 3215SOL     OW 9643   1.207   1.436   0.390
 3215SOL    HW1 9644   1.249   1.400   0.468
 3215SOL    HW2 9645   1.275   1.433   0.322
 3216SOL     OW 9646   2.204   4.030   5.034
 3216SOL    HW1 9647   2.295   4.012   5.008
 3216SOL    HW2 9648   2.209   4.043   5.129
 3217SOL     OW 9649   2.954   4.354   1.509
 3217SOL    HW1 9650   2.913   4.439   1.528
 3217SOL    HW2 9651   3.035   4.377   1.462
 3218SOL     OW 9652   1.425   4.959   3.408
 3218SOL    HW1 9653   1.406   4.909   3.329
 3218SOL    HW2 9654   1.345   5.008   3.426
 3219SOL     OW 9655   0.289   4.843   0.168
 3219SOL    HW1 9656   0.346   4.766   0.165
 3219SOL    HW2 9657   0.341   4.913   0.128
 3220SOL     OW 9658   1.930   2.719   1.442
 3220SOL    HW1 9659   2.023   2.740   1.435
 3220SOL    HW2 9660   1.891   2.760   1.364
 3221SOL     OW 9661   1.110   0.153   2.414
 3221SOL    HW1 9662   1.104   0.224   2.350
 3221SOL    HW2 9663   1.184   0.177   2.470
 3222SOL     OW 9664   0.500   1.050   3.340
 3222SOL    HW1 9665   0.513   1.145   3.343
 3222SOL    HW2 9666   0.582   1.016   3.306
 3223SOL     OW 9667   1.009   3.562   3.578
 3223SOL    HW1 9668   0.943   3.625   3.549
 3223SOL    HW2 9669   1.077   3.615   3.620
 3224SOL     OW 9670   1.579   1.154   1.549
 3224SOL    HW1 9671   1.671   1.177   1.565
 3224SOL    HW2 9672   1.556   1.096   1.622
 3225SOL     OW 9673   2.298   4.964   1.482
 3225SOL    HW1 9674   2.380   4.913   1.477
 3225SOL    HW2 9675   2.288   4.983   1.575
 3226SOL     OW 9676   3.025   3.556   2.903
 3226SOL    HW1 9677   2.951   3.551   2.843
 3226SOL    HW2 9678   2.985   3.551   2.990
 3227SOL     OW 9679   1.690   3.180   0.836
 3227SOL    HW1 9680   1.606   3.209   0.872
 3227SOL    HW2 9681   1.688   3.085   0.844
 3228SOL     OW 9682   4.772   1.854   2.208
 3228SOL    HW1 9683   4.817   1.776   2.176
 3228SOL    HW2 9684   4.679   1.833   2.200
 3229SOL     OW 9685   1.017   2.894   2.973
 3229SOL    HW1 9686   0.961   2.948   2.918
 3229SOL    HW2 9687   0.962   2.821   3.000
 3230SOL     OW 9688   3.724   2.703   3.775
 3230SOL    HW1 9689   3.697   2.781   3.726
 3230SOL    HW2 9690   3.761   2.645   3.709
 3231SOL     OW 9691   2.548   1.430   1.500
 3231SOL    HW1 9692   2.468   1.468   1.465
 3231SOL    HW2 9693   2.570   1.485   1.576
 3232SOL     OW 9694   0.946   0.121   4.626
 3232SOL    HW1 9695   1.008   0.194   4.632
 3232SOL    HW2 9696   0.868   0.160   4.587
 3233SOL     OW 9697   0.974   0.645   1.919
 3233SOL    HW1 9698   0.938   0.667   1.834
 3233SOL    HW2 9699   0.907   0.591   1.961
 3234SOL     OW 9700   4.182   0.955   3.817
 3234SOL    HW1 9701   4.107   0.978   3.872
 3234SOL    HW2 9702   4.150   0.964   3.728
 3235SOL     OW 9703   5.125   4.647   1.851
 3235SOL    HW1 9704   5.203   4.592   1.842
 3235SOL    HW2 9705   5.159   4.733   1.876
 3236SOL     OW 9706   0.108   4.722   0.547
 3236SOL    HW1 9707   0.060   4.699   0.468
 3236SOL    HW2 9708   0.070   4.805   0.575
 3237SOL     OW 9709   2.330   3.617   4.268
 3237SOL    HW1 9710   2.360   3.636   4.357
 3237SOL    HW2 9711   2.288   3.698   4.239
 3238SOL     OW 9712   4.668   4.081   0.377
 3238SOL    HW1 9713   4.689   4.174   0.388
 3238SOL    HW2 9714   4.632   4.075   0.289
 3239SOL     OW 9715   3.084   1.602   2.573
 3239SOL    HW1 9716   3.131   1.520   2.591
 3239SOL    HW2 9717   3.152   1.663   2.544
 3240SOL     OW 9718   2.797   4.311   0.512
 3240SOL    HW1 9719   2.746   4.330   0.433
 3240SOL    HW2 9720   2.871   4.371   0.507
 3241SOL     OW 9721   4.677   3.399   1.539
 3241SOL    HW1 9722   4.587   3.370   1.522
 3241SOL    HW2 9723   4.732   3.336   1.493
 3242SOL     OW 9724   4.187   0.558   3.237
 3242SOL    HW1 9725   4.145   0.490   3.184
 3242SOL    HW2 9726   4.147   0.549   3.323
 3243SOL     OW 9727   3.268   4.559   3.379
 3243SOL    HW1 9728   3.289   4.609   3.458
 3243SOL    HW2 9729   3.176   4.581   3.361
 3244SOL     OW 9730   1.371   4.340   5.006
 3244SOL    HW1 9731   1.318   4.403   5.056
 3244SOL    HW2 9732   1.455   4.338   5.052
 3245SOL     OW 9733  -0.001   3.309   0.208
 3245SOL    HW1 9734   0.072   3.289   0.267
 3245SOL    HW2 9735  -0.068   3.346   0.266
 3246SOL     OW 9736   4.769   5.082   1.147
 3246SOL    HW1 9737   4.681   5.114   1.165
 3246SOL    HW2 9738   4.778   5.003   1.200
 3247SOL     OW 9739   2.628   0.723   4.367
 3247SOL    HW1 9740   2.602   0.635   4.338
 3247SOL    HW2 9741   2.594   0.781   4.299
 3248SOL     OW 9742   0.415   4.059   0.904
 3248SOL    HW1 9743   0.432   4.039   0.812
 3248SOL    HW2 9744   0.395   4.152   0.905
 3249SOL     OW 9745   3.433   2.473   3.619
 3249SOL    HW1 9746   3.394   2.481   3.706
 3249SOL    HW2 9747   3.364   2.433   3.566
 3250SOL     OW 9748   1.551   3.175   4.573
 3250SOL    HW1 9749   1.626   3.128   4.609
 3250SOL    HW2 9750   1.485   3.171   4.642
 3251SOL     OW 9751   4.591   0.789   2.056
 3251SOL    HW1 9752   4.677   0.768   2.018
 3251SOL    HW2 9753   4.542   0.826   1.983
 3252SOL     OW 9754   2.141   4.173   2.566
 3252SOL    HW1 9755   2.166   4.259   2.532
 3252SOL    HW2 9756   2.224   4.129   2.585
 3253SOL     OW 9757   2.024   2.325   2.403
 3253SOL    HW1 9758   2.037   2.419   2.394
 3253SOL    HW2 9759   1.938   2.309   2.362
 3254SOL     OW 9760   3.338   0.100   0.199
 3254SOL    HW1 9761   3.323   0.168   0.134
 3254SOL    HW2 9762   3.253   0.085   0.239
 3255SOL     OW 9763   1.778   3.071   2.063
 3255SOL    HW1 9764   1.814   3.037   2.145
 3255SOL    HW2 9765   1.709   3.009   2.039
 3256SOL     OW 9766   1.616   2.920   2.730
 3256SOL    HW1 9767   1.527   2.890   2.712
 3256SOL    HW2 9768   1.611   2.962   2.816
 3257SOL     OW 9769   4.635   4.846   3.678
 3257SOL    HW1 9770   4.654   4.761   3.717
 3257SOL    HW2 9771   4.565   4.829   3.615
 3258SOL     OW 9772   2.495   3.499   5.167
 3258SOL    HW1 9773   2.429   3.436   5.139
 3258SOL    HW2 9774   2.505   3.558   5.092
 3259SOL     OW 9775   0.813   2.342   0.889
 3259SOL    HW1 9776   0.848   2.421   0.931
 3259SOL    HW2 9777   0.889   2.301   0.848
 3260SOL     OW 9778   1.376   1.703   2.522
 3260SOL    HW1 9779   1.297   1.651   2.537
 3260SOL    HW2 9780   1.446   1.638   2.515
 3261SOL     OW 9781   1.578   3.000   0.201
 3261SOL    HW1 9782   1.613   2.959   0.122
 3261SOL    HW2 9783   1.495   3.039   0.173
 3262SOL     OW 9784   4.452   0.713   4.248
 3262SOL    HW1 9785   4.382   0.705   4.183
 3262SOL    HW2 9786   4.451   0.805   4.273
 3263SOL     OW 9787   2.513   3.329   3.290
 3263SOL    HW1 9788   2.531   3.395   3.222
 3263SOL    HW2 9789   2.506   3.247   3.242
 3264SOL     OW 9790   2.115   1.957   2.178
 3264SOL    HW1 9791   2.150   1.878   2.220
 3264SOL    HW2 9792   2.026   1.934   2.153
 3265SOL     OW 9793   4.512   4.908   2.724
 3265SOL    HW1 9794   4.588   4.895   2.781
 3265SOL    HW2 9795   4.451   4.839   2.750
 3266SOL     OW 9796   0.446   2.888   0.669
 3266SOL    HW1 9797   0.538   2.915   0.672
 3266SOL    HW2 9798   0.437   2.844   0.584
 3267SOL     OW 9799   0.397   2.433   4.551
 3267SOL    HW1 9800   0.425   2.495   4.484
 3267SOL    HW2 9801   0.397   2.484   4.632
 3268SOL     OW 9802   0.057   4.337   2.438
 3268SOL    HW1 9803   0.055   4.339   2.534
 3268SOL    HW2 9804   0.020   4.252   2.414
 3269SOL     OW 9805   1.873   1.905   4.551
 3269SOL    HW1 9806   1.780   1.886   4.539
 3269SOL    HW2 9807   1.875   1.993   4.587
 3270SOL     OW 9808   2.949   0.519   5.000
 3270SOL    HW1 9809   2.972   0.570   4.922
 3270SOL    HW2 9810   2.853   0.514   4.997
 3271SOL     OW 9811   3.876   4.446   2.404
 3271SOL    HW1 9812   3.909   4.360   2.377
 3271SOL    HW2 9813   3.789   4.452   2.364
 3272SOL     OW 9814   4.639   4.998   4.115
 3272SOL    HW1 9815   4.709   4.973   4.055
 3272SOL    HW2 9816   4.669   4.967   4.200
 3273SOL     OW 9817   2.337   3.270   5.100
 3273SOL    HW1 9818   2.347   3.190   5.049
 3273SOL    HW2 9819   2.316   3.239   5.188
 3274SOL     OW 9820   0.843   3.025   4.952
 3274SOL    HW1 9821   0.813   2.946   4.906
 3274SOL    HW2 9822   0.860   2.996   5.041
 3275SOL     OW 9823   2.438   1.452   2.247
 3275SOL    HW1 9824   2.487   1.374   2.273
 3275SOL    HW2 9825   2.362   1.453   2.305
 3276SOL     OW 9826   0.454   0.308   4.587
 3276SOL    HW1 9827   0.527   0.331   4.529
 3276SOL    HW2 9828   0.485   0.233   4.637
 3277SOL     OW 9829   5.178   1.533   4.919
 3277SOL    HW1 9830   5.145   1.447   4.893
 3277SOL    HW2 9831   5.160   1.590   4.844
 3278SOL     OW 9832   1.430   0.049   3.039
 3278SOL    HW1 9833   1.487  -0.027   3.031
 3278SOL    HW2 9834   1.426   0.067   3.133
 3279SOL     OW 9835   4.070   2.074   3.402
 3279SOL    HW1 9836   4.071   1.982   3.374
 3279SOL    HW2 9837   4.117   2.121   3.333
 3280SOL     OW 9838   1.204   4.530   1.265
 3280SOL    HW1 9839   1.232   4.506   1.177
 3280SOL    HW2 9840   1.124   4.479   1.280
 3281SOL     OW 9841   0.862   0.407   4.809
 3281SOL    HW1 9842   0.784   0.447   4.848
 3281SOL    HW2 9843   0.866   0.320   4.848
 3282SOL     OW 9844   3.292   4.306   4.642
 3282SOL    HW1 9845   3.353   4.233   4.627
 3282SOL    HW2 9846   3.289   4.316   4.737
 3283SOL     OW 9847   0.984   1.979   3.899
 3283SOL    HW1 9848   1.017   1.980   3.809
 3283SOL    HW2 9849   0.975   1.886   3.920
 3284SOL     OW 9850   4.213   2.913   4.235
 3284SOL    HW1 9851   4.284   2.858   4.267
 3284SOL    HW2 9852   4.137   2.886   4.287
 3285SOL     OW 9853   1.260   4.825   3.716
 3285SOL    HW1 9854   1.232   4.739   3.746
 3285SOL    HW2 9855   1.315   4.858   3.787
 3286SOL     OW 9856   2.276   3.579   2.824
 3286SOL    HW1 9857   2.194   3.628   2.815
 3286SOL    HW2 9858   2.263   3.500   2.772
 3287SOL     OW 9859   3.900   3.575   3.596
 3287SOL    HW1 9860   3.925   3.508   3.533
 3287SOL    HW2 9861   3.806   3.583   3.586
 3288SOL     OW 9862   0.623   1.503   2.869
 3288SOL    HW1 9863   0.615   1.587   2.824
 3288SOL    HW2 9864   0.567   1.512   2.946
 3289SOL     OW 9865   0.558   3.244   0.598
 3289SOL    HW1 9866   0.545   3.319   0.540
 3289SOL    HW2 9867   0.605   3.280   0.674
 3290SOL     OW 9868   0.204   0.994   4.060
 3290SOL    HW1 9869   0.209   1.028   4.150
 3290SOL    HW2 9870   0.166   0.907   4.069
 3291SOL     OW 9871   1.539   1.610   3.539
 3291SOL    HW1 9872   1.587   1.624   3.457
 3291SOL    HW2 9873   1.573   1.527   3.572
 3292SOL     OW 9874   0.912   5.103   3.939
 3292SOL    HW1 9875   0.855   5.053   3.880
 3292SOL    HW2 9876   0.928   5.185   3.892
 3293SOL     OW 9877   4.945   4.899   1.420
 3293SOL    HW1 9878   4.949   4.993   1.440
 3293SOL    HW2 9879   5.037   4.871   1.422
 3294SOL     OW 9880   3.577   1.673   3.848
 3294SOL    HW1 9881   3.570   1.581   3.874
 3294SOL    HW2 9882   3.668   1.684   3.821
 3295SOL     OW 9883   4.602   2.509   2.734
 3295SOL    HW1 9884   4.622   2.602   2.741
 3295SOL    HW2 9885   4.647   2.469   2.808
 3296SOL     OW 9886   3.234   1.109   2.768
 3296SOL    HW1 9887   3.206   1.032   2.818
 3296SOL    HW2 9888   3.153   1.155   2.747
 3297SOL     OW 9889   2.809   0.944   3.701
 3297SOL    HW1 9890   2.829   1.017   3.643
 3297SOL    HW2 9891   2.758   0.984   3.772
 3298SOL     OW 9892   0.760   4.942   3.776
 3298SOL    HW1 9893   0.798   4.898   3.700
 3298SOL    HW2 9894   0.724   4.871   3.829
 3299SOL     OW 9895   0.382   3.175   3.475
 3299SOL    HW1 9896   0.391   3.243   3.408
 3299SOL    HW2 9897   0.431   3.208   3.550
 3300SOL     OW 9898   4.844   1.408   1.629
 3300SOL    HW1 9899   4.915   1.445   1.576
 3300SOL    HW2 9900   4.779   1.478   1.634
 3301SOL     OW 9901   0.875   0.542   5.094
 3301SOL    HW1 9902   0.903   0.633   5.096
 3301SOL    HW2 9903   0.817   0.536   5.017
 3302SOL     OW 9904   2.145   3.573   3.289
 3302SOL    HW1 9905   2.063   3.526   3.302
 3302SOL    HW2 9906   2.198   3.514   3.235
 3303SOL     OW 9907   2.127   2.109   1.321
 3303SOL    HW1 9908   2.061   2.072   1.380
 3303SOL    HW2 9909   2.204   2.053   1.333
 3304SOL     OW 9910   5.116   2.002   3.875
 3304SOL    HW1 9911   5.052   2.068   3.849
 3304SOL    HW2 9912   5.193   2.019   3.821
 3305SOL     OW 9913   4.047   3.359   2.931
 3305SOL    HW1 9914   4.141   3.341   2.923
 3305SOL    HW2 9915   4.025   3.408   2.851
 3306SOL     OW 9916   4.880   3.893   0.741
 3306SOL    HW1 9917   4.926   3.974   0.761
 3306SOL    HW2 9918   4.791   3.907   0.773
 3307SOL     OW 9919   1.785   1.071   4.963
 3307SOL    HW1 9920   1.825   1.105   5.043
 3307SOL    HW2 9921   1.841   0.998   4.938
 3308SOL     OW 9922   2.757   5.153   1.448
 3308SOL    HW1 9923   2.733   5.153   1.541
 3308SOL    HW2 9924   2.825   5.086   1.440
 3309SOL     OW 9925   2.673   1.675   5.042
 3309SOL    HW1 9926   2.611   1.648   5.110
 3309SOL    HW2 9927   2.623   1.673   4.961
 3310SOL     OW 9928   2.969   2.472   1.447
 3310SOL    HW1 9929   2.904   2.424   1.497
 3310SOL    HW2 9930   3.051   2.460   1.497
 3311SOL     OW 9931   4.441   1.535   2.758
 3311SOL    HW1 9932   4.422   1.447   2.726
 3311SOL    HW2 9933   4.450   1.588   2.679
 3312SOL     OW 9934   2.859   1.754   3.230
 3312SOL    HW1 9935   2.804   1.775   3.305
 3312SOL    HW2 9936   2.944   1.790   3.251
 3313SOL     OW 9937   1.975   1.786   4.776
 3313SOL    HW1 9938   1.960   1.859   4.836
 3313SOL    HW2 9939   1.917   1.804   4.702
 3314SOL     OW 9940   0.388   4.667   0.774
 3314SOL    HW1 9941   0.411   4.742   0.720
 3314SOL    HW2 9942   0.317   4.698   0.829
 3315SOL     OW 9943   1.170   3.326   2.704
 3315SOL    HW1 9944   1.115   3.284   2.771
 3315SOL    HW2 9945   1.254   3.341   2.748
 3316SOL     OW 9946   1.653   1.189   2.615
 3316SOL    HW1 9947   1.727   1.249   2.602
 3316SOL    HW2 9948   1.584   1.244   2.653
 3317SOL     OW 9949   2.733   4.040   1.840
 3317SOL    HW1 9950   2.818   4.037   1.883
 3317SOL    HW2 9951   2.703   3.949   1.837
 3318SOL     OW 9952   1.505   2.717   3.378
 3318SOL    HW1 9953   1.448   2.752   3.446
 3318SOL    HW2 9954   1.486   2.770   3.301
 3319SOL     OW 9955   1.194   4.561   3.799
 3319SOL    HW1 9956   1.134   4.537   3.869
 3319SOL    HW2 9957   1.232   4.478   3.769
 3320SOL     OW 9958   4.130   4.406   2.120
 3320SOL    HW1 9959   4.099   4.482   2.168
 3320SOL    HW2 9960   4.108   4.331   2.175
 3321SOL     OW 9961   2.285   2.480   0.866
 3321SOL    HW1 9962   2.309   2.457   0.955
 3321SOL    HW2 9963   2.308   2.572   0.857
 3322SOL     OW 9964   0.145   0.576   2.398
 3322SOL    HW1 9965   0.208   0.587   2.469
 3322SOL    HW2 9966   0.149   0.483   2.376
 3323SOL     OW 9967   2.302   0.172   1.269
 3323SOL    HW1 9968   2.364   0.099   1.279
 3323SOL    HW2 9969   2.307   0.219   1.352
 3324SOL     OW 9970   1.629   1.456   1.289
 3324SOL    HW1 9971   1.554   1.446   1.348
 3324SOL    HW2 9972   1.591   1.490   1.208
 3325SOL     OW 9973   1.168   0.753   1.681
 3325SOL    HW1 9974   1.197   0.739   1.771
 3325SOL    HW2 9975   1.089   0.701   1.672
 3326SOL     OW 9976   4.702   4.151   1.322
 3326SOL    HW1 9977   4.622   4.143   1.373
 3326SOL    HW2 9978   4.715   4.065   1.283
 3327SOL     OW 9979   0.785   2.910   4.573
 3327SOL    HW1 9980   0.775   2.819   4.543
 3327SOL    HW2 9981   0.695   2.942   4.583
 3328SOL     OW 9982   3.145   0.483   2.504
 3328SOL    HW1 9983   3.155   0.558   2.563
 3328SOL    HW2 9984   3.054   0.456   2.516
 3329SOL     OW 9985   3.008   2.361   3.733
 3329SOL    HW1 9986   3.001   2.269   3.709
 3329SOL    HW2 9987   3.011   2.361   3.828
 3330SOL     OW 9988   1.935   0.193   4.275
 3330SOL    HW1 9989   2.006   0.227   4.329
 3330SOL    HW2 9990   1.865   0.173   4.338
 3331SOL     OW 9991   0.103   5.157   0.749
 3331SOL    HW1 9992   0.045   5.221   0.707
 3331SOL    HW2 9993   0.075   5.073   0.714
 3332SOL     OW 9994   4.641   0.622   0.778
 3332SOL    HW1 9995   4.672   0.647   0.865
 3332SOL    HW2 9996   4.641   0.526   0.780
 3333SOL     OW 9997   0.458   1.832   3.525
 3333SOL    HW1 9998   0.471   1.855   3.433
 3333SOL    HW2 9999   0.422   1.743   3.522
 3334SOL     OW10000   3.667   2.412   4.739
 3334SOL    HW110001   3.639   2.395   4.649
 3334SOL    HW210002   3.762   2.398   4.737
 3335SOL     OW10003   3.903   0.229   2.852
 3335SOL    HW110004   3.836   0.172   2.890
 3335SOL    HW210005   3.958   0.170   2.800
 3336SOL     OW10006   2.273   1.413   4.928
 3336SOL    HW110007   2.271   1.321   4.899
 3336SOL    HW210008   2.187   1.447   4.906
 3337SOL     OW10009   3.768   3.981   2.872
 3337SOL    HW110010   3.734   3.953   2.956
 3337SOL    HW210011   3.856   4.013   2.891
 3338SOL     OW10012   4.862   0.370   1.612
 3338SOL    HW110013   4.804   0.420   1.670
 3338SOL    HW210014   4.950   0.393   1.640
 3339SOL     OW10015   0.918   1.266   0.585
 3339SOL    HW110016   0.871   1.319   0.649
 3339SOL    HW210017   0.994   1.233   0.634
 3340SOL     OW10018   0.055   5.026   2.789
 3340SOL    HW110019   0.149   5.043   2.787
 3340SOL    HW210020   0.019   5.098   2.840
 3341SOL     OW10021   3.475   1.105   1.950
 3341SOL    HW110022   3.526   1.151   2.017
 3341SOL    HW210023   3.424   1.041   1.999
 3342SOL     OW10024   1.274   0.634   1.376
 3342SOL    HW110025   1.216   0.578   1.428
 3342SOL    HW210026   1.291   0.710   1.432
 3343SOL     OW10027   2.711   3.705   4.424
 3343SOL    HW110028   2.775   3.643   4.389
 3343SOL    HW210029   2.765   3.776   4.459
 3344SOL     OW10030   0.335   4.752   2.564
 3344SOL    HW110031   0.266   4.730   2.627
 3344SOL    HW210032   0.358   4.843   2.585
 3345SOL     OW10033   4.688   3.152   4.572
 3345SOL    HW110034   4.661   3.240   4.598
 3345SOL    HW210035   4.608   3.099   4.581
 3346SOL     OW10036   2.678   1.944   1.526
 3346SOL    HW110037   2.631   1.926   1.445
 3346SOL    HW210038   2.664   2.037   1.543
 3347SOL     OW10039   3.223   4.687   1.872
 3347SOL    HW110040   3.305   4.732   1.890
 3347SOL    HW210041   3.243   4.628   1.799
 3348SOL     OW10042   2.311   1.693   0.384
 3348SOL    HW110043   2.300   1.771   0.330
 3348SOL    HW210044   2.382   1.715   0.443
 3349SOL     OW10045   1.910   1.984   0.592
 3349SOL    HW110046   1.992   2.014   0.554
 3349SOL    HW210047   1.933   1.955   0.680
 3350SOL     OW10048   3.104   4.332   3.204
 3350SOL    HW110049   3.021   4.381   3.208
 3350SOL    HW210050   3.080   4.248   3.165
 3351SOL     OW10051   0.285   2.786   0.848
 3351SOL    HW110052   0.347   2.816   0.781
 3351SOL    HW210053   0.330   2.802   0.931
 3352SOL     OW10054   3.090   1.086   1.850
 3352SOL    HW110055   3.023   1.091   1.782
 3352SOL    HW210056   3.060   1.016   1.908
 3353SOL     OW10057   2.813   1.909   0.099
 3353SOL    HW110058   2.842   1.967   0.169
 3353SOL    HW210059   2.761   1.842   0.144
 3354SOL     OW10060   3.598   5.068   1.416
 3354SOL    HW110061   3.653   5.144   1.435
 3354SOL    HW210062   3.598   5.061   1.321
 3355SOL     OW10063   4.218   3.560   3.448
 3355SOL    HW110064   4.165   3.636   3.471
 3355SOL    HW210065   4.217   3.557   3.353
 3356SOL     OW10066   0.988   0.452   3.959
 3356SOL    HW110067   1.078   0.421   3.970
 3356SOL    HW210068   0.941   0.418   4.035
 3357SOL     OW10069   1.101   4.367   3.111
 3357SOL    HW110070   1.176   4.316   3.142
 3357SOL    HW210071   1.028   4.338   3.165
 3358SOL     OW10072   4.663   4.606   3.825
 3358SOL    HW110073   4.755   4.633   3.815
 3358SOL    HW210074   4.648   4.547   3.751
 3359SOL     OW10075   3.768   4.963   1.621
 3359SOL    HW110076   3.851   5.009   1.609
 3359SOL    HW210077   3.709   5.003   1.557
 3360SOL     OW10078   2.897   1.158   3.558
 3360SOL    HW110079   2.883   1.251   3.540
 3360SOL    HW210080   2.990   1.152   3.583
 3361SOL     OW10081   1.555   3.369   1.909
 3361SOL    HW110082   1.579   3.288   1.953
 3361SOL    HW210083   1.495   3.413   1.970
 3362SOL     OW10084   5.123   2.880   0.157
 3362SOL    HW110085   5.050   2.819   0.140
 3362SOL    HW210086   5.116   2.945   0.086
 3363SOL     OW10087   4.484   1.479   0.869
 3363SOL    HW110088   4.416   1.439   0.923
 3363SOL    HW210089   4.504   1.412   0.804
 3364SOL     OW10090   0.493   1.571   1.701
 3364SOL    HW110091   0.513   1.633   1.630
 3364SOL    HW210092   0.453   1.625   1.769
 3365SOL     OW10093   1.186   0.166   1.853
 3365SOL    HW110094   1.248   0.217   1.905
 3365SOL    HW210095   1.221   0.168   1.764
 3366SOL     OW10096   2.466   3.824   1.027
 3366SOL    HW110097   2.411   3.819   1.106
 3366SOL    HW210098   2.420   3.886   0.970
 3367SOL     OW10099   5.183   3.491   4.864
 3367SOL    HW110100   5.222   3.565   4.816
 3367SOL    HW210101   5.163   3.527   4.951
 3368SOL     OW10102   2.185   1.398   4.369
 3368SOL    HW110103   2.154   1.478   4.326
 3368SOL    HW210104   2.272   1.421   4.403
 3369SOL     OW10105   2.357   1.161   4.885
 3369SOL    HW110106   2.309   1.079   4.896
 3369SOL    HW210107   2.421   1.143   4.816
 3370SOL     OW10108   4.135   2.367   0.207
 3370SOL    HW110109   4.067   2.434   0.217
 3370SOL    HW210110   4.198   2.405   0.147
 3371SOL     OW10111   2.033   0.373   0.343
 3371SOL    HW110112   2.008   0.437   0.410
 3371SOL    HW210113   1.969   0.302   0.353
 3372SOL     OW10114   0.504   2.049   2.592
 3372SOL    HW110115   0.526   2.138   2.619
 3372SOL    HW210116   0.416   2.057   2.554
 3373SOL     OW10117   1.682   0.254   2.691
 3373SOL    HW110118   1.750   0.318   2.714
 3373SOL    HW210119   1.727   0.170   2.692
 3374SOL     OW10120   2.072   1.546   0.536
 3374SOL    HW110121   2.151   1.584   0.499
 3374SOL    HW210122   2.012   1.536   0.461
 3375SOL     OW10123   5.115   3.760   4.259
 3375SOL    HW110124   5.134   3.716   4.177
 3375SOL    HW210125   5.097   3.689   4.321
 3376SOL     OW10126   4.260   2.882   3.400
 3376SOL    HW110127   4.263   2.788   3.382
 3376SOL    HW210128   4.331   2.897   3.462
 3377SOL     OW10129   4.200   3.076   1.442
 3377SOL    HW110130   4.287   3.075   1.482
 3377SOL    HW210131   4.196   2.996   1.390
 3378SOL     OW10132   4.224   3.502   4.964
 3378SOL    HW110133   4.160   3.437   4.995
 3378SOL    HW210134   4.309   3.465   4.988
 3379SOL     OW10135   1.001   2.020   4.827
 3379SOL    HW110136   0.990   2.026   4.922
 3379SOL    HW210137   1.089   2.052   4.811
 3380SOL     OW10138   4.843   0.103   1.596
 3380SOL    HW110139   4.775   0.081   1.660
 3380SOL    HW210140   4.844   0.198   1.594
 3381SOL     OW10141   2.943   4.980   3.612
 3381SOL    HW110142   3.031   4.998   3.579
 3381SOL    HW210143   2.956   4.963   3.705
 3382SOL     OW10144   1.823   1.961   3.512
 3382SOL    HW110145   1.767   2.035   3.489
 3382SOL    HW210146   1.854   1.927   3.428
 3383SOL     OW10147   0.462   0.822   4.178
 3383SOL    HW110148   0.464   0.761   4.252
 3383SOL    HW210149   0.371   0.854   4.176
 3384SOL     OW10150   3.798   0.946   0.889
 3384SOL    HW110151   3.886   0.972   0.861
 3384SOL    HW210152   3.750   1.029   0.897
 3385SOL     OW10153   1.089   2.447   1.891
 3385SOL    HW110154   0.997   2.421   1.887
 3385SOL    HW210155   1.137   2.364   1.884
 3386SOL     OW10156   4.364   4.823   0.648
 3386SOL    HW110157   4.329   4.764   0.715
 3386SOL    HW210158   4.400   4.765   0.581
 3387SOL     OW10159   0.516   4.143   0.150
 3387SOL    HW110160   0.433   4.164   0.108
 3387SOL    HW210161   0.534   4.052   0.124
 3388SOL     OW10162   4.260   1.825   0.593
 3388SOL    HW110163   4.226   1.752   0.542
 3388SOL    HW210164   4.266   1.791   0.682
 3389SOL     OW10165   0.598   4.389   1.291
 3389SOL    HW110166   0.509   4.363   1.316
 3389SOL    HW210167   0.599   4.484   1.304
 3390SOL     OW10168   4.452   0.497   2.410
 3390SOL    HW110169   4.516   0.436   2.373
 3390SOL    HW210170   4.493   0.528   2.491
 3391SOL     OW10171   3.960   0.402   3.908
 3391SOL    HW110172   3.935   0.485   3.948
 3391SOL    HW210173   3.884   0.378   3.854
 3392SOL     OW10174   5.068   0.555   3.564
 3392SOL    HW110175   5.116   0.601   3.495
 3392SOL    HW210176   5.135   0.529   3.627
 3393SOL     OW10177   5.025   1.216   1.418
 3393SOL    HW110178   5.094   1.188   1.479
 3393SOL    HW210179   5.066   1.212   1.332
 3394SOL     OW10180   4.842   5.043   2.583
 3394SOL    HW110181   4.936   5.055   2.588
 3394SOL    HW210182   4.806   5.099   2.652
 3395SOL     OW10183   0.616   2.238   2.794
 3395SOL    HW110184   0.525   2.228   2.824
 3395SOL    HW210185   0.610   2.300   2.721
 3396SOL     OW10186   4.216   0.298   1.127
 3396SOL    HW110187   4.287   0.244   1.093
 3396SOL    HW210188   4.137   0.263   1.085
 3397SOL     OW10189   1.398   3.512   2.128
 3397SOL    HW110190   1.354   3.561   2.197
 3397SOL    HW210191   1.487   3.547   2.126
 3398SOL     OW10192   0.033   4.155   4.104
 3398SOL    HW110193  -0.012   4.203   4.034
 3398SOL    HW210194   0.083   4.222   4.151
 3399SOL     OW10195   4.924   1.956   0.683
 3399SOL    HW110196   4.906   2.017   0.611
 3399SOL    HW210197   4.976   2.007   0.745
 3400SOL     OW10198   3.841   3.639   3.152
 3400SOL    HW110199   3.916   3.584   3.178
 3400SOL    HW210200   3.771   3.576   3.134
 3401SOL     OW10201   0.582   4.752   4.663
 3401SOL    HW110202   0.659   4.728   4.613
 3401SOL    HW210203   0.615   4.810   4.732
 3402SOL     OW10204   0.641   4.722   2.588
 3402SOL    HW110205   0.546   4.724   2.578
 3402SOL    HW210206   0.672   4.795   2.535
 3403SOL     OW10207   1.674   0.198   0.602
 3403SOL    HW110208   1.767   0.180   0.614
 3403SOL    HW210209   1.663   0.203   0.507
 3404SOL     OW10210   2.932   0.635   2.179
 3404SOL    HW110211   2.937   0.729   2.195
 3404SOL    HW210212   2.987   0.621   2.102
 3405SOL     OW10213   1.303   0.956   4.390
 3405SOL    HW110214   1.374   1.011   4.358
 3405SOL    HW210215   1.323   0.868   4.358
 3406SOL     OW10216   3.901   0.082   4.011
 3406SOL    HW110217   3.963   0.088   3.938
 3406SOL    HW210218   3.893  -0.012   4.027
 3407SOL     OW10219   2.064   3.789   3.962
 3407SOL    HW110220   2.063   3.874   3.919
 3407SOL    HW210221   2.031   3.806   4.050
 3408SOL     OW10222   0.286   0.074   4.404
 3408SOL    HW110223   0.206   0.096   4.451
 3408SOL    HW210224   0.262   0.075   4.312
 3409SOL     OW10225   4.772   3.119   2.178
 3409SOL    HW110226   4.701   3.055   2.185
 3409SOL    HW210227   4.835   3.079   2.118
 3410SOL     OW10228   4.885   1.741   4.977
 3410SOL    HW110229   4.862   1.831   4.957
 3410SOL    HW210230   4.977   1.733   4.954
 3411SOL     OW10231   0.416   0.366   1.450
 3411SOL    HW110232   0.461   0.437   1.403
 3411SOL    HW210233   0.414   0.293   1.389
 3412SOL     OW10234   0.824   2.176   3.511
 3412SOL    HW110235   0.748   2.232   3.495
 3412SOL    HW210236   0.804   2.094   3.465
 3413SOL     OW10237   4.284   2.318   1.641
 3413SOL    HW110238   4.210   2.335   1.583
 3413SOL    HW210239   4.253   2.343   1.728
 3414SOL     OW10240   0.249   0.038   3.004
 3414SOL    HW110241   0.230   0.001   3.091
 3414SOL    HW210242   0.280  -0.037   2.953
 3415SOL     OW10243   2.168   4.726   1.470
 3415SOL    HW110244   2.226   4.668   1.519
 3415SOL    HW210245   2.198   4.814   1.492
 3416SOL     OW10246   3.021   0.101   0.056
 3416SOL    HW110247   3.012   0.053  -0.027
 3416SOL    HW210248   3.061   0.184   0.030
 3417SOL     OW10249   4.846   4.990   0.890
 3417SOL    HW110250   4.827   5.036   0.972
 3417SOL    HW210251   4.795   5.037   0.824
 3418SOL     OW10252   2.803   4.734   1.195
 3418SOL    HW110253   2.778   4.783   1.117
 3418SOL    HW210254   2.890   4.701   1.176
 3419SOL     OW10255   2.073   3.873   2.457
 3419SOL    HW110256   2.157   3.913   2.432
 3419SOL    HW210257   2.058   3.904   2.547
 3420SOL     OW10258   2.541   4.674   0.804
 3420SOL    HW110259   2.572   4.597   0.757
 3420SOL    HW210260   2.512   4.735   0.735
 3421SOL     OW10261   0.131   3.282   1.413
 3421SOL    HW110262   0.063   3.347   1.428
 3421SOL    HW210263   0.097   3.227   1.343
 3422SOL     OW10264   4.942   4.083   3.406
 3422SOL    HW110265   5.029   4.096   3.369
 3422SOL    HW210266   4.885   4.143   3.357
 3423SOL     OW10267   3.274   1.395   5.008
 3423SOL    HW110268   3.219   1.364   4.935
 3423SOL    HW210269   3.241   1.483   5.027
 3424SOL     OW10270   4.124   1.603   1.753
 3424SOL    HW110271   4.058   1.558   1.701
 3424SOL    HW210272   4.205   1.591   1.703
 3425SOL     OW10273   2.537   0.759   0.142
 3425SOL    HW110274   2.620   0.807   0.143
 3425SOL    HW210275   2.482   0.807   0.081
 3426SOL     OW10276   1.710   4.071   5.149
 3426SOL    HW110277   1.757   4.089   5.231
 3426SOL    HW210278   1.729   4.147   5.094
 3427SOL     OW10279   4.012   0.952   1.103
 3427SOL    HW110280   4.038   1.039   1.071
 3427SOL    HW210281   3.968   0.969   1.186
 3428SOL     OW10282   4.985   0.094   1.172
 3428SOL    HW110283   5.058   0.062   1.120
 3428SOL    HW210284   4.910   0.041   1.144
 3429SOL     OW10285   4.409   2.382   3.470
 3429SOL    HW110286   4.489   2.348   3.511
 3429SOL    HW210287   4.341   2.370   3.537
 3430SOL     OW10288   2.164   0.890   2.719
 3430SOL    HW110289   2.116   0.946   2.659
 3430SOL    HW210290   2.143   0.801   2.692
 3431SOL     OW10291   4.175   3.403   2.077
 3431SOL    HW110292   4.166   3.402   2.173
 3431SOL    HW210293   4.260   3.443   2.062
 3432SOL     OW10294   2.013   3.730   4.836
 3432SOL    HW110295   2.074   3.707   4.766
 3432SOL    HW210296   2.061   3.711   4.916
 3433SOL     OW10297   4.511   4.794   1.725
 3433SOL    HW110298   4.524   4.889   1.725
 3433SOL    HW210299   4.577   4.760   1.785
 3434SOL     OW10300   1.201   4.634   4.555
 3434SOL    HW110301   1.121   4.685   4.564
 3434SOL    HW210302   1.257   4.666   4.626
 3435SOL     OW10303   0.905   2.828   3.751
 3435SOL    HW110304   0.984   2.813   3.803
 3435SOL    HW210305   0.935   2.882   3.677
 3436SOL     OW10306   3.578   4.183   3.427
 3436SOL    HW110307   3.509   4.217   3.370
 3436SOL    HW210308   3.596   4.254   3.488
 3437SOL     OW10309   2.090   2.559   4.089
 3437SOL    HW110310   2.111   2.620   4.160
 3437SOL    HW210311   2.114   2.605   4.009
 3438SOL     OW10312   3.040   4.598   5.134
 3438SOL    HW110313   3.032   4.581   5.040
 3438SOL    HW210314   2.950   4.593   5.166
 3439SOL     OW10315   2.849   0.209   0.528
 3439SOL    HW110316   2.803   0.290   0.548
 3439SOL    HW210317   2.779   0.148   0.502
 3440SOL     OW10318   0.585   1.514   2.444
 3440SOL    HW110319   0.502   1.546   2.478
 3440SOL    HW210320   0.566   1.424   2.417
 3441SOL     OW10321   2.685   2.862   0.349
 3441SOL    HW110322   2.724   2.778   0.324
 3441SOL    HW210323   2.733   2.889   0.428
 3442SOL     OW10324   2.210   0.513   3.279
 3442SOL    HW110325   2.292   0.562   3.284
 3442SOL    HW210326   2.237   0.421   3.272
 3443SOL     OW10327   0.576   3.482   3.492
 3443SOL    HW110328   0.651   3.536   3.517
 3443SOL    HW210329   0.516   3.543   3.448
 3444SOL     OW10330   1.947   4.934   3.260
 3444SOL    HW110331   2.023   4.905   3.311
 3444SOL    HW210332   1.872   4.920   3.317
 3445SOL     OW10333   0.679   3.183   2.438
 3445SOL    HW110334   0.771   3.184   2.409
 3445SOL    HW210335   0.653   3.092   2.432
 3446SOL     OW10336   4.212   0.064   3.524
 3446SOL    HW110337   4.235   0.008   3.449
 3446SOL    HW210338   4.295   0.081   3.567
 3447SOL     OW10339   3.756   1.328   2.297
 3447SOL    HW110340   3.750   1.308   2.390
 3447SOL    HW210341   3.744   1.423   2.292
 3448SOL     OW10342   4.218   2.296   3.886
 3448SOL    HW110343   4.309   2.290   3.915
 3448SOL    HW210344   4.223   2.289   3.791
 3449SOL     OW10345   1.426   4.203   4.532
 3449SOL    HW110346   1.521   4.198   4.532
 3449SOL    HW210347   1.403   4.213   4.625
 3450SOL     OW10348   0.057   3.412   3.162
 3450SOL    HW110349   0.070   3.351   3.089
 3450SOL    HW210350   0.030   3.357   3.235
 3451SOL     OW10351   4.658   0.323   4.067
 3451SOL    HW110352   4.741   0.370   4.072
 3451SOL    HW210353   4.682   0.235   4.038
 3452SOL     OW10354   0.484   0.440   2.906
 3452SOL    HW110355   0.523   0.354   2.924
 3452SOL    HW210356   0.527   0.499   2.968
 3453SOL     OW10357   0.838   1.311   0.856
 3453SOL    HW110358   0.861   1.238   0.914
 3453SOL    HW210359   0.743   1.304   0.846
 3454SOL     OW10360   1.245   3.729   3.655
 3454SOL    HW110361   1.185   3.801   3.673
 3454SOL    HW210362   1.296   3.720   3.736
 3455SOL     OW10363   0.793   0.030   2.390
 3455SOL    HW110364   0.872   0.048   2.442
 3455SOL    HW210365   0.730   0.097   2.419
 3456SOL     OW10366   2.428   4.961   3.975
 3456SOL    HW110367   2.364   4.900   4.012
 3456SOL    HW210368   2.502   4.906   3.949
 3457SOL     OW10369   2.623   2.942   4.478
 3457SOL    HW110370   2.540   2.923   4.436
 3457SOL    HW210371   2.653   3.023   4.437
 3458SOL     OW10372   4.027   1.026   3.323
 3458SOL    HW110373   3.989   0.938   3.328
 3458SOL    HW210374   4.044   1.040   3.230
 3459SOL     OW10375   4.283   2.282   1.274
 3459SOL    HW110376   4.221   2.259   1.205
 3459SOL    HW210377   4.245   2.359   1.316
 3460SOL     OW10378   2.366   2.360   3.276
 3460SOL    HW110379   2.404   2.425   3.216
 3460SOL    HW210380   2.306   2.411   3.330
 3461SOL     OW10381   2.277   0.563   1.504
 3461SOL    HW110382   2.370   0.580   1.520
 3461SOL    HW210383   2.262   0.596   1.415
 3462SOL     OW10384   1.839   4.050   0.242
 3462SOL    HW110385   1.917   4.024   0.292
 3462SOL    HW210386   1.776   4.074   0.309
 3463SOL     OW10387   0.028   3.888   0.999
 3463SOL    HW110388   0.039   3.967   0.945
 3463SOL    HW210389   0.103   3.833   0.976
 3464SOL     OW10390   4.005   3.294   0.607
 3464SOL    HW110391   4.032   3.272   0.696
 3464SOL    HW210392   3.978   3.386   0.611
 3465SOL     OW10393   0.358   4.113   2.670
 3465SOL    HW110394   0.356   4.161   2.752
 3465SOL    HW210395   0.269   4.079   2.659
 3466SOL     OW10396   3.205   0.994   5.055
 3466SOL    HW110397   3.175   0.923   5.111
 3466SOL    HW210398   3.215   1.069   5.114
 3467SOL     OW10399   0.929   2.621   0.290
 3467SOL    HW110400   1.019   2.651   0.273
 3467SOL    HW210401   0.923   2.536   0.246
 3468SOL     OW10402   2.819   1.425   4.112
 3468SOL    HW110403   2.886   1.492   4.128
 3468SOL    HW210404   2.770   1.459   4.036
 3469SOL     OW10405   4.878   2.741   1.607
 3469SOL    HW110406   4.899   2.729   1.514
 3469SOL    HW210407   4.925   2.670   1.651
 3470SOL     OW10408   2.103   1.882   4.407
 3470SOL    HW110409   2.096   1.937   4.329
 3470SOL    HW210410   2.017   1.887   4.448
 3471SOL     OW10411   3.496   0.305   2.923
 3471SOL    HW110412   3.533   0.223   2.955
 3471SOL    HW210413   3.408   0.282   2.893
 3472SOL     OW10414   0.837   2.536   1.333
 3472SOL    HW110415   0.766   2.510   1.392
 3472SOL    HW210416   0.845   2.630   1.345
 3473SOL     OW10417   0.063   0.283   3.393
 3473SOL    HW110418  -0.024   0.317   3.372
 3473SOL    HW210419   0.120   0.319   3.325
 3474SOL     OW10420   1.759   0.925   1.312
 3474SOL    HW110421   1.676   0.966   1.337
 3474SOL    HW210422   1.766   0.940   1.218
 3475SOL     OW10423   3.994   2.980   0.031
 3475SOL    HW110424   3.916   2.924   0.028
 3475SOL    HW210425   4.038   2.964  -0.052
 3476SOL     OW10426   1.910   1.027   3.250
 3476SOL    HW110427   1.978   0.976   3.206
 3476SOL    HW210428   1.869   1.077   3.180
 3477SOL     OW10429   1.754   2.438   2.570
 3477SOL    HW110430   1.781   2.391   2.491
 3477SOL    HW210431   1.694   2.506   2.539
 3478SOL     OW10432   4.393   4.469   4.892
 3478SOL    HW110433   4.457   4.540   4.893
 3478SOL    HW210434   4.346   4.478   4.975
 3479SOL     OW10435   4.034   1.830   3.316
 3479SOL    HW110436   4.047   1.749   3.364
 3479SOL    HW210437   3.949   1.820   3.273
 3480SOL     OW10438   2.036   3.208   4.469
 3480SOL    HW110439   2.094   3.233   4.397
 3480SOL    HW210440   2.053   3.274   4.537
 3481SOL     OW10441   2.024   1.194   0.345
 3481SOL    HW110442   2.004   1.288   0.351
 3481SOL    HW210443   1.943   1.151   0.375
 3482SOL     OW10444   1.479   2.515   4.200
 3482SOL    HW110445   1.456   2.578   4.268
 3482SOL    HW210446   1.560   2.475   4.231
 3483SOL     OW10447   1.014   5.175   0.231
 3483SOL    HW110448   1.065   5.192   0.311
 3483SOL    HW210449   0.923   5.193   0.257
 3484SOL     OW10450   3.814   0.009   2.414
 3484SOL    HW110451   3.792   0.077   2.479
 3484SOL    HW210452   3.907   0.021   2.398
 3485SOL     OW10453   3.356   3.232   4.854
 3485SOL    HW110454   3.319   3.308   4.899
 3485SOL    HW210455   3.393   3.268   4.773
 3486SOL     OW10456   1.019   4.143   1.370
 3486SOL    HW110457   1.029   4.235   1.345
 3486SOL    HW210458   0.934   4.141   1.415
 3487SOL     OW10459   1.244   2.570   0.946
 3487SOL    HW110460   1.234   2.661   0.919
 3487SOL    HW210461   1.164   2.550   0.995
 3488SOL     OW10462   0.716   4.665   0.837
 3488SOL    HW110463   0.689   4.696   0.751
 3488SOL    HW210464   0.651   4.598   0.859
 3489SOL     OW10465   0.537   4.750   4.317
 3489SOL    HW110466   0.459   4.725   4.366
 3489SOL    HW210467   0.610   4.719   4.371
 3490SOL     OW10468   4.620   3.655   1.612
 3490SOL    HW110469   4.570   3.681   1.689
 3490SOL    HW210470   4.628   3.560   1.619
 3491SOL     OW10471   2.814   1.143   3.090
 3491SOL    HW110472   2.784   1.217   3.143
 3491SOL    HW210473   2.814   1.068   3.149
 3492SOL     OW10474   3.585   2.689   5.047
 3492SOL    HW110475   3.549   2.765   5.093
 3492SOL    HW210476   3.557   2.613   5.099
 3493SOL     OW10477   0.496   0.863   0.204
 3493SOL    HW110478   0.467   0.789   0.257
 3493SOL    HW210479   0.456   0.939   0.246
 3494SOL     OW10480   0.297   3.952   2.304
 3494SOL    HW110481   0.383   3.993   2.297
 3494SOL    HW210482   0.315   3.861   2.327
 3495SOL     OW10483   4.170   1.524   2.452
 3495SOL    HW110484   4.120   1.458   2.405
 3495SOL    HW210485   4.106   1.566   2.510
 3496SOL     OW10486   0.088   4.128   2.116
 3496SOL    HW110487   0.156   4.115   2.182
 3496SOL    HW210488   0.100   4.056   2.055
 3497SOL     OW10489   0.454   0.682   1.599
 3497SOL    HW110490   0.474   0.590   1.615
 3497SOL    HW210491   0.359   0.689   1.610
 3498SOL     OW10492   1.109   1.226   3.084
 3498SOL    HW110493   1.130   1.277   3.163
 3498SOL    HW210494   1.184   1.168   3.073
 3499SOL     OW10495   0.367   2.015   2.116
 3499SOL    HW110496   0.368   2.110   2.114
 3499SOL    HW210497   0.274   1.992   2.113
 3500SOL     OW10498   4.360   2.204   4.894
 3500SOL    HW110499   4.406   2.130   4.934
 3500SOL    HW210500   4.268   2.191   4.916
 3501SOL     OW10501   4.741   3.788   3.711
 3501SOL    HW110502   4.683   3.822   3.779
 3501SOL    HW210503   4.711   3.830   3.631
 3502SOL     OW10504   2.498   2.162   2.322
 3502SOL    HW110505   2.530   2.201   2.241
 3502SOL    HW210506   2.408   2.135   2.301
 3503SOL     OW10507   2.164   3.027   1.695
 3503SOL    HW110508   2.186   3.068   1.612
 3503SOL    HW210509   2.138   3.100   1.752
 3504SOL     OW10510   4.967   4.167   1.237
 3504SOL    HW110511   4.873   4.161   1.251
 3504SOL    HW210512   4.976   4.211   1.152
 3505SOL     OW10513   3.587   4.550   1.800
 3505SOL    HW110514   3.666   4.518   1.844
 3505SOL    HW210515   3.515   4.500   1.838
 3506SOL     OW10516   3.572   2.968   5.128
 3506SOL    HW110517   3.620   3.047   5.155
 3506SOL    HW210518   3.545   2.987   5.038
 3507SOL     OW10519   2.904   4.185   2.596
 3507SOL    HW110520   2.970   4.138   2.544
 3507SOL    HW210521   2.952   4.260   2.632
 3508SOL     OW10522   4.782   3.458   4.664
 3508SOL    HW110523   4.737   3.485   4.744
 3508SOL    HW210524   4.874   3.452   4.689
 3509SOL     OW10525   4.945   3.174   0.439
 3509SOL    HW110526   5.017   3.110   0.438
 3509SOL    HW210527   4.976   3.246   0.385
 3510SOL     OW10528   3.362   3.105   3.915
 3510SOL    HW110529   3.307   3.175   3.950
 3510SOL    HW210530   3.402   3.143   3.837
 3511SOL     OW10531   2.646   1.366   0.982
 3511SOL    HW110532   2.722   1.349   1.038
 3511SOL    HW210533   2.613   1.280   0.958
 3512SOL     OW10534   3.649   1.168   0.931
 3512SOL    HW110535   3.682   1.204   1.013
 3512SOL    HW210536   3.560   1.141   0.951
 3513SOL     OW10537   1.897   4.096   0.930
 3513SOL    HW110538   1.961   4.093   1.001
 3513SOL    HW210539   1.866   4.006   0.922
 3514SOL     OW10540   1.067   1.015   3.858
 3514SOL    HW110541   1.158   1.021   3.830
 3514SOL    HW210542   1.034   0.937   3.813
 3515SOL     OW10543  -0.002   4.419   4.595
 3515SOL    HW110544  -0.007   4.495   4.653
 3515SOL    HW210545   0.018   4.456   4.508
 3516SOL     OW10546   2.709   0.963   0.181
 3516SOL    HW110547   2.724   1.029   0.113
 3516SOL    HW210548   2.796   0.942   0.214
 3517SOL     OW10549   5.008   0.620   0.577
 3517SOL    HW110550   5.091   0.618   0.531
 3517SOL    HW210551   4.961   0.542   0.546
 3518SOL     OW10552   2.586   1.245   1.791
 3518SOL    HW110553   2.623   1.330   1.765
 3518SOL    HW210554   2.523   1.225   1.722
 3519SOL     OW10555   5.154   4.022   0.479
 3519SOL    HW110556   5.112   4.077   0.545
 3519SOL    HW210557   5.151   4.074   0.399
 3520SOL     OW10558   0.058   1.521   5.167
 3520SOL    HW110559   0.136   1.470   5.145
 3520SOL    HW210560   0.012   1.532   5.084
 3521SOL     OW10561   4.688   2.482   4.959
 3521SOL    HW110562   4.780   2.461   4.942
 3521SOL    HW210563   4.685   2.505   5.052
 3522SOL     OW10564   1.496   0.432   0.015
 3522SOL    HW110565   1.576   0.444   0.066
 3522SOL    HW210566   1.522   0.375  -0.058
 3523SOL     OW10567   1.491   2.836   3.131
 3523SOL    HW110568   1.413   2.790   3.098
 3523SOL    HW210569   1.565   2.781   3.102
 3524SOL     OW10570   4.312   2.740   0.379
 3524SOL    HW110571   4.227   2.766   0.343
 3524SOL    HW210572   4.315   2.782   0.465
 3525SOL     OW10573   4.113   1.055   2.968
 3525SOL    HW110574   4.042   0.991   2.955
 3525SOL    HW210575   4.193   1.005   2.955
 3526SOL     OW10576   5.160   4.946   0.610
 3526SOL    HW110577   5.170   5.027   0.560
 3526SOL    HW210578   5.081   4.905   0.575
 3527SOL     OW10579   5.155   4.489   3.769
 3527SOL    HW110580   5.251   4.489   3.775
 3527SOL    HW210581   5.136   4.432   3.695
 3528SOL     OW10582   2.233   0.247   3.340
 3528SOL    HW110583   2.232   0.153   3.358
 3528SOL    HW210584   2.204   0.287   3.422
 3529SOL     OW10585   3.552   0.512   0.035
 3529SOL    HW110586   3.502   0.589   0.008
 3529SOL    HW210587   3.593   0.538   0.117
 3530SOL     OW10588   0.358   1.049   0.334
 3530SOL    HW110589   0.364   1.145   0.340
 3530SOL    HW210590   0.273   1.029   0.373
 3531SOL     OW10591   0.847   3.572   2.302
 3531SOL    HW110592   0.887   3.637   2.359
 3531SOL    HW210593   0.899   3.493   2.316
 3532SOL     OW10594   2.226   1.745   4.118
 3532SOL    HW110595   2.179   1.676   4.165
 3532SOL    HW210596   2.159   1.811   4.099
 3533SOL     OW10597   2.471   4.499   5.010
 3533SOL    HW110598   2.422   4.460   4.938
 3533SOL    HW210599   2.448   4.592   5.006
 3534SOL     OW10600   4.194   0.610   4.955
 3534SOL    HW110601   4.154   0.591   4.870
 3534SOL    HW210602   4.224   0.701   4.948
 3535SOL     OW10603   1.289   1.439   4.049
 3535SOL    HW110604   1.210   1.450   4.103
 3535SOL    HW210605   1.263   1.471   3.963
 3536SOL     OW10606   4.284   0.989  -0.016
 3536SOL    HW110607   4.235   1.044   0.045
 3536SOL    HW210608   4.280   0.901   0.022
 3537SOL     OW10609   2.525   2.218   3.478
 3537SOL    HW110610   2.620   2.212   3.466
 3537SOL    HW210611   2.500   2.296   3.430
 3538SOL     OW10612   2.452   0.027   3.183
 3538SOL    HW110613   2.473   0.062   3.269
 3538SOL    HW210614   2.388  -0.042   3.200
 3539SOL     OW10615   1.763   3.821   4.888
 3539SOL    HW110616   1.733   3.880   4.819
 3539SOL    HW210617   1.855   3.807   4.869
 3540SOL     OW10618   0.792   4.692   4.422
 3540SOL    HW110619   0.814   4.682   4.329
 3540SOL    HW210620   0.837   4.619   4.465
 3541SOL     OW10621   3.653   2.926   2.073
 3541SOL    HW110622   3.593   2.894   2.005
 3541SOL    HW210623   3.676   2.847   2.123
 3542SOL     OW10624   3.616   2.314   3.796
 3542SOL    HW110625   3.557   2.254   3.842
 3542SOL    HW210626   3.558   2.376   3.752
 3543SOL     OW10627   4.655   3.948   0.882
 3543SOL    HW110628   4.631   3.935   0.974
 3543SOL    HW210629   4.609   4.027   0.856
 3544SOL     OW10630   1.204   3.718   1.227
 3544SOL    HW110631   1.154   3.665   1.290
 3544SOL    HW210632   1.221   3.800   1.273
 3545SOL     OW10633   4.759   1.979   0.176
 3545SOL    HW110634   4.674   2.024   0.184
 3545SOL    HW210635   4.748   1.921   0.100
 3546SOL     OW10636   0.864   0.869   2.097
 3546SOL    HW110637   0.915   0.820   2.032
 3546SOL    HW210638   0.891   0.832   2.181
 3547SOL     OW10639   0.327   0.967   3.648
 3547SOL    HW110640   0.314   0.990   3.556
 3547SOL    HW210641   0.242   0.983   3.689
 3548SOL     OW10642   1.371   0.671   4.329
 3548SOL    HW110643   1.347   0.591   4.283
 3548SOL    HW210644   1.424   0.641   4.403
 3549SOL     OW10645   1.273   3.301   4.260
 3549SOL    HW110646   1.265   3.217   4.305
 3549SOL    HW210647   1.335   3.352   4.314
 3550SOL     OW10648   2.452   0.724   3.639
 3550SOL    HW110649   2.380   0.783   3.618
 3550SOL    HW210650   2.410   0.648   3.679
 3551SOL     OW10651   3.145   0.311   4.314
 3551SOL    HW110652   3.191   0.345   4.237
 3551SOL    HW210653   3.087   0.243   4.280
 3552SOL     OW10654   4.925   4.306   1.022
 3552SOL    HW110655   4.861   4.354   1.074
 3552SOL    HW210656   4.970   4.374   0.972
 3553SOL     OW10657   0.268   0.654   1.343
 3553SOL    HW110658   0.204   0.608   1.397
 3553SOL    HW210659   0.343   0.595   1.338
 3554SOL     OW10660   2.950   0.671   1.871
 3554SOL    HW110661   2.941   0.747   1.929
 3554SOL    HW210662   2.995   0.706   1.794
 3555SOL     OW10663   0.924   1.391   0.295
 3555SOL    HW110664   1.002   1.420   0.341
 3555SOL    HW210665   0.879   1.333   0.357
 3556SOL     OW10666   2.322   3.340   2.299
 3556SOL    HW110667   2.264   3.416   2.307
 3556SOL    HW210668   2.276   3.282   2.238
 3557SOL     OW10669   4.444   0.740   1.064
 3557SOL    HW110670   4.416   0.828   1.038
 3557SOL    HW210671   4.367   0.685   1.049
 3558SOL     OW10672   1.511   3.377   4.922
 3558SOL    HW110673   1.433   3.410   4.965
 3558SOL    HW210674   1.552   3.320   4.987
 3559SOL     OW10675   4.547   4.803   2.300
 3559SOL    HW110676   4.635   4.784   2.333
 3559SOL    HW210677   4.557   4.809   2.205
 3560SOL     OW10678   1.437   4.855   0.650
 3560SOL    HW110679   1.408   4.765   0.634
 3560SOL    HW210680   1.500   4.848   0.722
 3561SOL     OW10681   0.245   0.124   0.483
 3561SOL    HW110682   0.225   0.195   0.545
 3561SOL    HW210683   0.326   0.152   0.441
 3562SOL     OW10684   3.803   0.046   0.567
 3562SOL    HW110685   3.802  -0.006   0.648
 3562SOL    HW210686   3.835  -0.014   0.500
 3563SOL     OW10687   0.177   4.420   1.765
 3563SOL    HW110688   0.163   4.427   1.671
 3563SOL    HW210689   0.224   4.500   1.788
 3564SOL     OW10690   0.772   3.097   1.940
 3564SOL    HW110691   0.843   3.034   1.951
 3564SOL    HW210692   0.801   3.173   1.991
 3565SOL     OW10693   3.571   2.867   4.315
 3565SOL    HW110694   3.570   2.960   4.340
 3565SOL    HW210695   3.608   2.868   4.226
 3566SOL     OW10696   1.393   1.894   0.454
 3566SOL    HW110697   1.488   1.906   0.466
 3566SOL    HW210698   1.386   1.826   0.387
 3567SOL     OW10699   1.127   0.627   4.680
 3567SOL    HW110700   1.039   0.594   4.698
 3567SOL    HW210701   1.113   0.717   4.650
 3568SOL     OW10702   3.399   4.498   3.722
 3568SOL    HW110703   3.337   4.544   3.779
 3568SOL    HW210704   3.343   4.444   3.666
 3569SOL     OW10705   2.345   4.015   0.859
 3569SOL    HW110706   2.302   4.091   0.821
 3569SOL    HW210707   2.279   3.945   0.855
 3570SOL     OW10708   2.515   2.530   3.119
 3570SOL    HW110709   2.597   2.556   3.078
 3570SOL    HW210710   2.455   2.518   3.046
 3571SOL     OW10711   4.150   2.740   1.600
 3571SOL    HW110712   4.193   2.755   1.516
 3571SOL    HW210713   4.178   2.812   1.656
 3572SOL     OW10714   0.064   2.328   1.004
 3572SOL    HW110715   0.138   2.371   0.962
 3572SOL    HW210716  -0.007   2.393   1.000
 3573SOL     OW10717   1.524   1.959   2.954
 3573SOL    HW110718   1.541   2.051   2.933
 3573SOL    HW210719   1.475   1.961   3.036
 3574SOL     OW10720   3.062   4.669   1.138
 3574SOL    HW110721   3.090   4.681   1.047
 3574SOL    HW210722   3.114   4.733   1.187
 3575SOL     OW10723   0.101   2.328   4.770
 3575SOL    HW110724   0.113   2.394   4.838
 3575SOL    HW210725   0.025   2.279   4.798
 3576SOL     OW10726   0.683   2.641   0.445
 3576SOL    HW110727   0.616   2.610   0.385
 3576SOL    HW210728   0.766   2.624   0.400
 3577SOL     OW10729   4.497   2.005   4.444
 3577SOL    HW110730   4.588   2.036   4.446
 3577SOL    HW210731   4.447   2.081   4.415
 3578SOL     OW10732   4.614   3.309   0.916
 3578SOL    HW110733   4.564   3.389   0.930
 3578SOL    HW210734   4.584   3.276   0.831
 3579SOL     OW10735   2.164   2.909   5.047
 3579SOL    HW110736   2.196   2.946   4.964
 3579SOL    HW210737   2.229   2.843   5.070
 3580SOL     OW10738   3.264   4.908   2.465
 3580SOL    HW110739   3.197   4.966   2.501
 3580SOL    HW210740   3.318   4.965   2.409
 3581SOL     OW10741   3.414   4.153   1.919
 3581SOL    HW110742   3.396   4.125   2.009
 3581SOL    HW210743   3.425   4.071   1.871
 3582SOL     OW10744   1.316   3.920   4.261
 3582SOL    HW110745   1.402   3.954   4.237
 3582SOL    HW210746   1.269   3.996   4.296
 3583SOL     OW10747   1.606   0.235   2.425
 3583SOL    HW110748   1.635   0.250   2.515
 3583SOL    HW210749   1.632   0.145   2.407
 3584SOL     OW10750   2.571   4.702   3.632
 3584SOL    HW110751   2.584   4.608   3.640
 3584SOL    HW210752   2.627   4.728   3.559
 3585SOL     OW10753   3.840   0.915   2.922
 3585SOL    HW110754   3.774   0.847   2.911
 3585SOL    HW210755   3.790   0.996   2.930
 3586SOL     OW10756   0.478   2.240   3.739
 3586SOL    HW110757   0.463   2.146   3.750
 3586SOL    HW210758   0.411   2.281   3.794
 3587SOL     OW10759   0.861   0.346   4.200
 3587SOL    HW110760   0.909   0.341   4.282
 3587SOL    HW210761   0.842   0.439   4.189
 3588SOL     OW10762   1.713   0.629   5.117
 3588SOL    HW110763   1.744   0.555   5.170
 3588SOL    HW210764   1.721   0.599   5.026
 3589SOL     OW10765   3.709   1.594   2.358
 3589SOL    HW110766   3.748   1.669   2.402
 3589SOL    HW210767   3.703   1.620   2.266
 3590SOL     OW10768   2.388   3.122   0.950
 3590SOL    HW110769   2.455   3.188   0.971
 3590SOL    HW210770   2.426   3.073   0.877
 3591SOL     OW10771   4.655   4.315   3.980
 3591SOL    HW110772   4.701   4.374   4.040
 3591SOL    HW210773   4.574   4.292   4.027
 3592SOL     OW10774   4.832   0.669   1.952
 3592SOL    HW110775   4.818   0.686   1.858
 3592SOL    HW210776   4.894   0.596   1.954
 3593SOL     OW10777   0.208   2.989   2.389
 3593SOL    HW110778   0.183   2.897   2.377
 3593SOL    HW210779   0.181   3.032   2.308
 3594SOL     OW10780   3.334   0.853   1.778
 3594SOL    HW110781   3.408   0.892   1.731
 3594SOL    HW210782   3.318   0.912   1.852
 3595SOL     OW10783   2.439   1.004   2.457
 3595SOL    HW110784   2.423   1.035   2.368
 3595SOL    HW210785   2.361   1.031   2.506
 3596SOL     OW10786   3.933   1.331   4.158
 3596SOL    HW110787   3.933   1.377   4.074
 3596SOL    HW210788   4.022   1.340   4.191
 3597SOL     OW10789   2.341   3.328   1.745
 3597SOL    HW110790   2.378   3.253   1.792
 3597SOL    HW210791   2.313   3.388   1.813
 3598SOL     OW10792   4.599   0.508   0.489
 3598SOL    HW110793   4.673   0.449   0.503
 3598SOL    HW210794   4.604   0.570   0.562
 3599SOL     OW10795   3.261   0.613   4.407
 3599SOL    HW110796   3.206   0.621   4.330
 3599SOL    HW210797   3.248   0.695   4.455
 3600SOL     OW10798   1.567   0.062   0.788
 3600SOL    HW110799   1.594   0.112   0.711
 3600SOL    HW210800   1.647   0.022   0.821
 3601SOL     OW10801   0.567   0.898   4.883
 3601SOL    HW110802   0.638   0.854   4.929
 3601SOL    HW210803   0.487   0.871   4.928
 3602SOL     OW10804   0.363   0.541   0.637
 3602SOL    HW110805   0.368   0.447   0.650
 3602SOL    HW210806   0.388   0.578   0.722
 3603SOL     OW10807   2.319   3.950   4.503
 3603SOL    HW110808   2.391   3.890   4.522
 3603SOL    HW210809   2.355   4.009   4.436
 3604SOL     OW10810   2.475   3.059   4.959
 3604SOL    HW110811   2.491   3.044   4.865
 3604SOL    HW210812   2.472   2.971   4.997
 3605SOL     OW10813   3.658   2.819   2.555
 3605SOL    HW110814   3.611   2.890   2.600
 3605SOL    HW210815   3.715   2.865   2.492
 3606SOL     OW10816   1.095   3.685   5.031
 3606SOL    HW110817   1.015   3.681   5.085
 3606SOL    HW210818   1.119   3.594   5.017
 3607SOL     OW10819   4.485   3.541   2.496
 3607SOL    HW110820   4.436   3.589   2.429
 3607SOL    HW210821   4.546   3.486   2.446
 3608SOL     OW10822   4.050   3.950   4.947
 3608SOL    HW110823   4.120   3.887   4.927
 3608SOL    HW210824   4.069   4.025   4.891
 3609SOL     OW10825   0.577   0.626   0.800
 3609SOL    HW110826   0.591   0.675   0.719
 3609SOL    HW210827   0.644   0.659   0.860
 3610SOL     OW10828   0.250   0.725   3.852
 3610SOL    HW110829   0.258   0.766   3.765
 3610SOL    HW210830   0.159   0.699   3.858
 3611SOL     OW10831   4.838   5.138   2.339
 3611SOL    HW110832   4.858   5.070   2.274
 3611SOL    HW210833   4.846   5.095   2.423
 3612SOL     OW10834   4.263   0.558   2.738
 3612SOL    HW110835   4.260   0.481   2.795
 3612SOL    HW210836   4.318   0.531   2.664
 3613SOL     OW10837   0.134   2.550   4.985
 3613SOL    HW110838   0.042   2.568   4.963
 3613SOL    HW210839   0.180   2.631   4.964
 3614SOL     OW10840   2.128   2.512   1.577
 3614SOL    HW110841   2.070   2.547   1.509
 3614SOL    HW210842   2.072   2.453   1.628
 3615SOL     OW10843   1.372   0.181   0.087
 3615SOL    HW110844   1.389   0.270   0.058
 3615SOL    HW210845   1.276   0.174   0.091
 3616SOL     OW10846   3.888   1.327   1.933
 3616SOL    HW110847   3.902   1.419   1.911
 3616SOL    HW210848   3.825   1.295   1.868
 3617SOL     OW10849   1.252   2.133   4.814
 3617SOL    HW110850   1.343   2.124   4.841
 3617SOL    HW210851   1.244   2.225   4.787
 3618SOL     OW10852   1.448   0.500   2.572
 3618SOL    HW110853   1.520   0.439   2.555
 3618SOL    HW210854   1.438   0.549   2.490
 3619SOL     OW10855   1.129   4.938   0.975
 3619SOL    HW110856   1.128   4.879   1.050
 3619SOL    HW210857   1.148   4.881   0.901
 3620SOL     OW10858   0.635   2.480   4.999
 3620SOL    HW110859   0.547   2.515   5.009
 3620SOL    HW210860   0.678   2.539   4.938
 3621SOL     OW10861   3.645   2.337   1.644
 3621SOL    HW110862   3.552   2.317   1.655
 3621SOL    HW210863   3.667   2.390   1.720
 3622SOL     OW10864   2.208   3.023   4.805
 3622SOL    HW110865   2.296   3.061   4.800
 3622SOL    HW210866   2.153   3.085   4.758
 3623SOL     OW10867   1.292   4.757   0.115
 3623SOL    HW110868   1.273   4.722   0.202
 3623SOL    HW210869   1.227   4.826   0.102
 3624SOL     OW10870   0.488   3.686   3.745
 3624SOL    HW110871   0.543   3.644   3.811
 3624SOL    HW210872   0.403   3.644   3.755
 3625SOL     OW10873   4.162   3.410   3.795
 3625SOL    HW110874   4.083   3.457   3.820
 3625SOL    HW210875   4.231   3.476   3.798
 3626SOL     OW10876   1.415   1.554   1.705
 3626SOL    HW110877   1.332   1.561   1.754
 3626SOL    HW210878   1.425   1.638   1.662
 3627SOL     OW10879   1.968   0.661   2.636
 3627SOL    HW110880   1.953   0.567   2.624
 3627SOL    HW210881   1.892   0.691   2.686
 3628SOL     OW10882   3.092   1.283   2.083
 3628SOL    HW110883   3.003   1.249   2.096
 3628SOL    HW210884   3.121   1.243   2.001
 3629SOL     OW10885   5.223   4.869   5.068
 3629SOL    HW110886   5.220   4.887   5.162
 3629SOL    HW210887   5.138   4.830   5.048
 3630SOL     OW10888   1.604   3.984   3.023
 3630SOL    HW110889   1.544   3.930   3.074
 3630SOL    HW210890   1.613   3.939   2.940
 3631SOL     OW10891   2.424   4.565   4.256
 3631SOL    HW110892   2.392   4.474   4.253
 3631SOL    HW210893   2.506   4.563   4.207
 3632SOL     OW10894   4.591   4.243   1.685
 3632SOL    HW110895   4.626   4.317   1.635
 3632SOL    HW210896   4.499   4.238   1.659
 3633SOL     OW10897   3.310   2.484   3.839
 3633SOL    HW110898   3.237   2.438   3.880
 3633SOL    HW210899   3.349   2.535   3.910
 3634SOL     OW10900   0.990   0.377   2.799
 3634SOL    HW110901   1.046   0.450   2.827
 3634SOL    HW210902   0.986   0.319   2.876
 3635SOL     OW10903   1.000   2.987   4.046
 3635SOL    HW110904   1.066   2.970   4.114
 3635SOL    HW210905   0.966   2.901   4.023
 3636SOL     OW10906   1.565   3.386   3.148
 3636SOL    HW110907   1.531   3.316   3.204
 3636SOL    HW210908   1.558   3.465   3.201
 3637SOL     OW10909   2.826   2.354   2.242
 3637SOL    HW110910   2.895   2.322   2.299
 3637SOL    HW210911   2.755   2.380   2.301
 3638SOL     OW10912   0.211   0.959   4.337
 3638SOL    HW110913   0.209   0.912   4.421
 3638SOL    HW210914   0.266   1.035   4.353
 3639SOL     OW10915   2.026   0.652   5.047
 3639SOL    HW110916   1.970   0.576   5.031
 3639SOL    HW210917   2.114   0.615   5.055
 3640SOL     OW10918   4.171   2.637   3.067
 3640SOL    HW110919   4.122   2.592   3.137
 3640SOL    HW210920   4.141   2.728   3.071
 3641SOL     OW10921   3.701   0.277   4.408
 3641SOL    HW110922   3.695   0.249   4.499
 3641SOL    HW210923   3.611   0.298   4.383
 3642SOL     OW10924   0.991   0.408   4.427
 3642SOL    HW110925   1.054   0.372   4.489
 3642SOL    HW210926   0.942   0.473   4.477
 3643SOL     OW10927   1.275   3.605   1.540
 3643SOL    HW110928   1.299   3.513   1.550
 3643SOL    HW210929   1.322   3.633   1.461
 3644SOL     OW10930   4.030   0.194   5.187
 3644SOL    HW110931   4.034   0.108   5.146
 3644SOL    HW210932   3.959   0.239   5.142
 3645SOL     OW10933   1.685   4.120   0.461
 3645SOL    HW110934   1.683   4.114   0.556
 3645SOL    HW210935   1.610   4.070   0.432
 3646SOL     OW10936   1.714   0.391   2.168
 3646SOL    HW110937   1.720   0.323   2.235
 3646SOL    HW210938   1.629   0.432   2.184
 3647SOL     OW10939   1.599   1.524   3.279
 3647SOL    HW110940   1.519   1.564   3.246
 3647SOL    HW210941   1.573   1.435   3.302
 3648SOL     OW10942   4.950   1.247  -0.020
 3648SOL    HW110943   5.008   1.308   0.026
 3648SOL    HW210944   4.918   1.188   0.049
 3649SOL     OW10945   2.310   2.465   4.391
 3649SOL    HW110946   2.312   2.465   4.487
 3649SOL    HW210947   2.319   2.373   4.367
 3650SOL     OW10948   4.011   1.079   2.616
 3650SOL    HW110949   4.039   0.989   2.632
 3650SOL    HW210950   4.024   1.092   2.522
 3651SOL     OW10951   1.401   0.224   0.578
 3651SOL    HW110952   1.493   0.238   0.600
 3651SOL    HW210953   1.353   0.263   0.651
 3652SOL     OW10954   3.166   4.798   3.013
 3652SOL    HW110955   3.249   4.755   3.030
 3652SOL    HW210956   3.119   4.795   3.097
 3653SOL     OW10957   1.108   3.285   0.015
 3653SOL    HW110958   1.135   3.264   0.105
 3653SOL    HW210959   1.012   3.281   0.018
 3654SOL     OW10960   4.206   3.041   2.687
 3654SOL    HW110961   4.291   3.036   2.730
 3654SOL    HW210962   4.216   2.990   2.607
 3655SOL     OW10963   3.645   5.063   1.114
 3655SOL    HW110964   3.597   5.129   1.064
 3655SOL    HW210965   3.614   4.980   1.080
 3656SOL     OW10966   0.567   1.834   2.418
 3656SOL    HW110967   0.542   1.901   2.481
 3656SOL    HW210968   0.499   1.767   2.426
 3657SOL     OW10969   3.438   1.728   1.240
 3657SOL    HW110970   3.505   1.719   1.308
 3657SOL    HW210971   3.458   1.811   1.197
 3658SOL     OW10972   5.074   0.438   3.008
 3658SOL    HW110973   5.143   0.390   3.053
 3658SOL    HW210974   5.119   0.487   2.940
 3659SOL     OW10975   3.451   3.455   3.305
 3659SOL    HW110976   3.363   3.429   3.279
 3659SOL    HW210977   3.456   3.432   3.398
 3660SOL     OW10978   1.514   4.811   3.938
 3660SOL    HW110979   1.459   4.732   3.936
 3660SOL    HW210980   1.543   4.817   4.029
 3661SOL     OW10981   1.828   4.837   2.953
 3661SOL    HW110982   1.889   4.765   2.970
 3661SOL    HW210983   1.879   4.916   2.974
 3662SOL     OW10984   3.776   0.913   1.798
 3662SOL    HW110985   3.800   0.950   1.883
 3662SOL    HW210986   3.720   0.838   1.819
 3663SOL     OW10987   2.845   4.276   1.168
 3663SOL    HW110988   2.807   4.189   1.183
 3663SOL    HW210989   2.939   4.262   1.168
 3664SOL     OW10990   2.630   3.593   3.794
 3664SOL    HW110991   2.558   3.574   3.854
 3664SOL    HW210992   2.610   3.542   3.716
 3665SOL     OW10993   1.199   0.348   2.643
 3665SOL    HW110994   1.251   0.268   2.650
 3665SOL    HW210995   1.128   0.337   2.706
 3666SOL     OW10996   1.191   4.969   4.745
 3666SOL    HW110997   1.226   4.934   4.827
 3666SOL    HW210998   1.122   5.030   4.773
 3667SOL     OW10999   0.237   2.253   2.219
 3667SOL    HW111000   0.245   2.172   2.269
 3667SOL    HW211001   0.143   2.267   2.211
 3668SOL     OW11002   3.159   3.328   1.366
 3668SOL    HW111003   3.162   3.296   1.456
 3668SOL    HW211004   3.086   3.390   1.365
 3669SOL     OW11005   1.295   4.788   4.330
 3669SOL    HW111006   1.240   4.719   4.367
 3669SOL    HW211007   1.234   4.841   4.278
 3670SOL     OW11008   4.602   3.600   0.506
 3670SOL    HW111009   4.540   3.601   0.578
 3670SOL    HW211010   4.645   3.515   0.512
 3671SOL     OW11011   2.462   4.909   0.186
 3671SOL    HW111012   2.406   4.934   0.112
 3671SOL    HW211013   2.456   4.983   0.246
 3672SOL     OW11014   4.643   2.290   3.590
 3672SOL    HW111015   4.719   2.349   3.588
 3672SOL    HW211016   4.669   2.219   3.649
 3673SOL     OW11017   2.467   3.701   4.512
 3673SOL    HW111018   2.482   3.655   4.595
 3673SOL    HW211019   2.554   3.721   4.479
 3674SOL     OW11020   2.585   1.438   2.841
 3674SOL    HW111021   2.570   1.484   2.923
 3674SOL    HW211022   2.580   1.345   2.864
 3675SOL     OW11023   3.991   0.823   1.665
 3675SOL    HW111024   3.962   0.740   1.628
 3675SOL    HW211025   3.923   0.847   1.728
 3676SOL     OW11026   2.848   1.420   3.479
 3676SOL    HW111027   2.768   1.461   3.513
 3676SOL    HW211028   2.822   1.384   3.394
 3677SOL     OW11029   2.131   1.349   1.823
 3677SOL    HW111030   2.091   1.287   1.762
 3677SOL    HW211031   2.202   1.300   1.864
 3678SOL     OW11032   4.422   4.594   2.224
 3678SOL    HW111033   4.480   4.521   2.247
 3678SOL    HW211034   4.475   4.673   2.239
 3679SOL     OW11035   4.005   2.827   3.529
 3679SOL    HW111036   4.092   2.852   3.498
 3679SOL    HW211037   3.967   2.907   3.563
 3680SOL     OW11038   0.416   4.898   0.600
 3680SOL    HW111039   0.461   4.959   0.658
 3680SOL    HW211040   0.395   4.949   0.522
 3681SOL     OW11041   0.850   4.775   1.176
 3681SOL    HW111042   0.804   4.851   1.212
 3681SOL    HW211043   0.943   4.799   1.183
 3682SOL     OW11044   2.211   0.653   4.779
 3682SOL    HW111045   2.141   0.629   4.718
 3682SOL    HW211046   2.292   0.630   4.733
 3683SOL     OW11047   3.449   3.486   0.452
 3683SOL    HW111048   3.501   3.449   0.523
 3683SOL    HW211049   3.387   3.417   0.429
 3684SOL     OW11050   1.068   3.705   2.447
 3684SOL    HW111051   1.047   3.763   2.521
 3684SOL    HW211052   1.081   3.619   2.486
 3685SOL     OW11053   4.814   4.170   0.033
 3685SOL    HW111054   4.795   4.091  -0.019
 3685SOL    HW211055   4.909   4.167   0.046
 3686SOL     OW11056   2.496   4.256   0.930
 3686SOL    HW111057   2.492   4.162   0.918
 3686SOL    HW211058   2.505   4.268   1.025
 3687SOL     OW11059   5.139   3.471  -0.017
 3687SOL    HW111060   5.164   3.556   0.019
 3687SOL    HW211061   5.161   3.408   0.052
 3688SOL     OW11062   1.762   4.974   0.668
 3688SOL    HW111063   1.704   4.909   0.707
 3688SOL    HW211064   1.805   5.016   0.743
 3689SOL     OW11065   4.603   2.505   0.047
 3689SOL    HW111066   4.514   2.515   0.080
 3689SOL    HW211067   4.649   2.455   0.114
 3690SOL     OW11068   1.733   4.124   2.054
 3690SOL    HW111069   1.723   4.205   2.005
 3690SOL    HW211070   1.644   4.093   2.070
 3691SOL     OW11071   1.724   2.748   3.644
 3691SOL    HW111072   1.745   2.809   3.715
 3691SOL    HW211073   1.687   2.672   3.688
 3692SOL     OW11074   0.120   2.927   3.368
 3692SOL    HW111075   0.165   2.886   3.442
 3692SOL    HW211076   0.190   2.947   3.305
 3693SOL     OW11077   0.104   0.857   3.237
 3693SOL    HW111078   0.099   0.931   3.176
 3693SOL    HW211079   0.197   0.836   3.241
 3694SOL     OW11080   4.629   3.546   4.893
 3694SOL    HW111081   4.566   3.474   4.888
 3694SOL    HW211082   4.702   3.511   4.944
 3695SOL     OW11083   1.685   4.061   0.738
 3695SOL    HW111084   1.770   4.016   0.728
 3695SOL    HW211085   1.704   4.133   0.797
 3696SOL     OW11086   0.435   3.164   1.323
 3696SOL    HW111087   0.375   3.126   1.386
 3696SOL    HW211088   0.459   3.092   1.265
 3697SOL     OW11089   2.401   3.963   3.261
 3697SOL    HW111090   2.421   3.909   3.185
 3697SOL    HW211091   2.481   3.963   3.313
 3698SOL     OW11092   1.992   2.020   1.533
 3698SOL    HW111093   2.007   1.996   1.624
 3698SOL    HW211094   1.921   1.963   1.504
 3699SOL     OW11095   3.136   2.927   1.171
 3699SOL    HW111096   3.140   2.837   1.201
 3699SOL    HW211097   3.043   2.943   1.155
 3700SOL     OW11098   1.007   2.593   5.169
 3700SOL    HW111099   1.079   2.559   5.221
 3700SOL    HW211100   1.048   2.655   5.109
 3701SOL     OW11101   1.412   2.778   0.022
 3701SOL    HW111102   1.389   2.717   0.092
 3701SOL    HW211103   1.507   2.773   0.016
 3702SOL     OW11104   0.923   4.360   4.977
 3702SOL    HW111105   0.957   4.379   5.065
 3702SOL    HW211106   0.930   4.444   4.931
 3703SOL     OW11107   4.901   3.824   1.342
 3703SOL    HW111108   4.943   3.757   1.395
 3703SOL    HW211109   4.959   3.835   1.267
 3704SOL     OW11110   4.882   0.870   0.842
 3704SOL    HW111111   4.914   0.783   0.816
 3704SOL    HW211112   4.835   0.902   0.766
 3705SOL     OW11113   1.424   4.660   4.743
 3705SOL    HW111114   1.502   4.693   4.788
 3705SOL    HW211115   1.355   4.663   4.810
 3706SOL     OW11116   4.509   3.696   3.263
 3706SOL    HW111117   4.429   3.649   3.240
 3706SOL    HW211118   4.563   3.690   3.184
 3707SOL     OW11119   3.231   3.310   3.992
 3707SOL    HW111120   3.308   3.345   4.036
 3707SOL    HW211121   3.164   3.377   4.005
 3708SOL     OW11122   3.487   3.842   1.883
 3708SOL    HW111123   3.523   3.866   1.797
 3708SOL    HW211124   3.394   3.829   1.867
 3709SOL     OW11125   2.165   3.474   4.890
 3709SOL    HW111126   2.226   3.438   4.955
 3709SOL    HW211127   2.080   3.474   4.934
 3710SOL     OW11128   4.273   1.080   4.712
 3710SOL    HW111129   4.340   1.147   4.723
 3710SOL    HW211130   4.217   1.113   4.641
 3711SOL     OW11131   4.857   4.392   3.440
 3711SOL    HW111132   4.824   4.354   3.358
 3711SOL    HW211133   4.779   4.414   3.490
 3712SOL     OW11134   3.592   4.485   0.773
 3712SOL    HW111135   3.529   4.508   0.841
 3712SOL    HW211136   3.666   4.447   0.821
 3713SOL     OW11137   0.119   0.751   4.132
 3713SOL    HW111138   0.177   0.708   4.069
 3713SOL    HW211139   0.104   0.685   4.200
 3714SOL     OW11140   0.129   4.400   0.301
 3714SOL    HW111141   0.185   4.406   0.379
 3714SOL    HW211142   0.104   4.490   0.281
 3715SOL     OW11143   0.854   3.698   4.136
 3715SOL    HW111144   0.930   3.641   4.129
 3715SOL    HW211145   0.876   3.760   4.205
 3716SOL     OW11146   3.510   0.224   3.546
 3716SOL    HW111147   3.458   0.301   3.569
 3716SOL    HW211148   3.454   0.150   3.569
 3717SOL     OW11149   0.890   0.762   0.608
 3717SOL    HW111150   0.906   0.797   0.520
 3717SOL    HW211151   0.850   0.677   0.593
 3718SOL     OW11152   2.692   3.710   2.251
 3718SOL    HW111153   2.736   3.659   2.184
 3718SOL    HW211154   2.693   3.655   2.329
 3719SOL     OW11155   0.626   3.566   2.944
 3719SOL    HW111156   0.653   3.476   2.930
 3719SOL    HW211157   0.533   3.567   2.923
 3720SOL     OW11158   0.666   0.061   1.904
 3720SOL    HW111159   0.577   0.029   1.919
 3720SOL    HW211160   0.719  -0.018   1.894
 3721SOL     OW11161   1.788   2.100   0.991
 3721SOL    HW111162   1.865   2.098   0.935
 3721SOL    HW211163   1.739   2.022   0.967
 3722SOL     OW11164   4.892   0.700   1.665
 3722SOL    HW111165   4.868   0.789   1.640
 3722SOL    HW211166   4.897   0.653   1.582
 3723SOL     OW11167   0.287   2.760   4.942
 3723SOL    HW111168   0.213   2.820   4.930
 3723SOL    HW211169   0.340   2.801   5.010
 3724SOL     OW11170   2.419   0.077   5.126
 3724SOL    HW111171   2.450   0.142   5.190
 3724SOL    HW211172   2.450   0.110   5.042
 3725SOL     OW11173   4.536   4.677   3.076
 3725SOL    HW111174   4.552   4.733   3.153
 3725SOL    HW211175   4.608   4.698   3.017
 3726SOL     OW11176   3.578   0.850   3.841
 3726SOL    HW111177   3.525   0.926   3.864
 3726SOL    HW211178   3.550   0.829   3.752
 3727SOL     OW11179   0.149   1.575   3.342
 3727SOL    HW111180   0.230   1.599   3.387
 3727SOL    HW211181   0.086   1.643   3.368
 3728SOL     OW11182   2.366   2.718   1.591
 3728SOL    HW111183   2.306   2.645   1.603
 3728SOL    HW211184   2.355   2.771   1.671
 3729SOL     OW11185   1.427   4.138   2.049
 3729SOL    HW111186   1.410   4.101   2.136
 3729SOL    HW211187   1.390   4.226   2.053
 3730SOL     OW11188   0.847   0.576   4.592
 3730SOL    HW111189   0.849   0.538   4.679
 3730SOL    HW211190   0.843   0.671   4.608
 3731SOL     OW11191   1.817   0.871   3.730
 3731SOL    HW111192   1.826   0.929   3.805
 3731SOL    HW211193   1.796   0.929   3.657
 3732SOL     OW11194   2.379   1.082   3.142
 3732SOL    HW111195   2.351   1.111   3.055
 3732SOL    HW211196   2.442   1.012   3.124
 3733SOL     OW11197   0.269   0.186   1.946
 3733SOL    HW111198   0.324   0.265   1.947
 3733SOL    HW211199   0.328   0.116   1.974
 3734SOL     OW11200   0.762   2.064   1.479
 3734SOL    HW111201   0.771   2.004   1.553
 3734SOL    HW211202   0.668   2.079   1.471
 3735SOL     OW11203   0.792   4.253   1.153
 3735SOL    HW111204   0.714   4.287   1.197
 3735SOL    HW211205   0.863   4.310   1.183
 3736SOL     OW11206   2.767   4.814   1.649
 3736SOL    HW111207   2.706   4.888   1.648
 3736SOL    HW211208   2.853   4.854   1.640
 3737SOL     OW11209   3.438   1.679   0.512
 3737SOL    HW111210   3.513   1.738   0.513
 3737SOL    HW211211   3.475   1.592   0.527
 3738SOL     OW11212   2.730   0.023   4.372
 3738SOL    HW111213   2.724   0.116   4.347
 3738SOL    HW211214   2.642  -0.011   4.358
 3739SOL     OW11215   2.423   4.382   4.762
 3739SOL    HW111216   2.508   4.342   4.740
 3739SOL    HW211217   2.361   4.309   4.761
 3740SOL     OW11218   2.146   3.384   1.534
 3740SOL    HW111219   2.197   3.310   1.501
 3740SOL    HW211220   2.191   3.412   1.613
 3741SOL     OW11221   2.375   3.685   1.594
 3741SOL    HW111222   2.318   3.689   1.518
 3741SOL    HW211223   2.421   3.769   1.594
 3742SOL     OW11224   1.054   1.450   4.200
 3742SOL    HW111225   1.019   1.447   4.290
 3742SOL    HW211226   1.030   1.365   4.163
 3743SOL     OW11227   3.342   0.883   2.070
 3743SOL    HW111228   3.322   0.790   2.055
 3743SOL    HW211229   3.419   0.881   2.127
 3744SOL     OW11230   2.068   0.838   3.133
 3744SOL    HW111231   2.141   0.837   3.071
 3744SOL    HW211232   2.051   0.746   3.152
 3745SOL     OW11233   3.954   5.006   4.372
 3745SOL    HW111234   4.036   5.056   4.370
 3745SOL    HW211235   3.888   5.070   4.399
 3746SOL     OW11236   4.914   1.577   0.593
 3746SOL    HW111237   4.941   1.506   0.535
 3746SOL    HW211238   4.994   1.605   0.637
 3747SOL     OW11239   5.003   2.894   0.741
 3747SOL    HW111240   5.070   2.829   0.720
 3747SOL    HW211241   5.029   2.971   0.690
 3748SOL     OW11242   3.016   3.958   1.829
 3748SOL    HW111243   3.069   3.952   1.749
 3748SOL    HW211244   3.029   4.047   1.860
 3749SOL     OW11245   0.227   1.350   1.104
 3749SOL    HW111246   0.277   1.273   1.132
 3749SOL    HW211247   0.209   1.398   1.184
 3750SOL     OW11248   0.436   5.147   1.995
 3750SOL    HW111249   0.401   5.110   2.076
 3750SOL    HW211250   0.425   5.078   1.930
 3751SOL     OW11251   0.359   0.177   1.251
 3751SOL    HW111252   0.313   0.251   1.213
 3751SOL    HW211253   0.367   0.114   1.180
 3752SOL     OW11254   0.509   1.328   3.357
 3752SOL    HW111255   0.439   1.375   3.403
 3752SOL    HW211256   0.575   1.395   3.339
 3753SOL     OW11257   0.715   1.208   2.009
 3753SOL    HW111258   0.701   1.162   2.092
 3753SOL    HW211259   0.810   1.210   1.998
 3754SOL     OW11260   1.897   3.847   5.145
 3754SOL    HW111261   1.891   3.870   5.052
 3754SOL    HW211262   1.807   3.851   5.177
 3755SOL     OW11263   3.327   0.066   3.932
 3755SOL    HW111264   3.238   0.094   3.910
 3755SOL    HW211265   3.356   0.129   3.998
 3756SOL     OW11266   4.518   4.186   0.896
 3756SOL    HW111267   4.470   4.157   0.974
 3756SOL    HW211268   4.556   4.270   0.921
 3757SOL     OW11269   4.112   0.732   4.044
 3757SOL    HW111270   4.060   0.738   3.964
 3757SOL    HW211271   4.169   0.656   4.030
 3758SOL     OW11272   0.900   1.792   0.232
 3758SOL    HW111273   0.965   1.820   0.168
 3758SOL    HW211274   0.944   1.722   0.281
 3759SOL     OW11275   2.681   1.191   5.168
 3759SOL    HW111276   2.593   1.228   5.155
 3759SOL    HW211277   2.702   1.150   5.084
 3760SOL     OW11278   0.558   3.747   1.474
 3760SOL    HW111279   0.486   3.719   1.530
 3760SOL    HW211280   0.546   3.842   1.466
 3761SOL     OW11281   4.545   4.329   0.041
 3761SOL    HW111282   4.536   4.255   0.101
 3761SOL    HW211283   4.502   4.301  -0.040
 3762SOL     OW11284   1.560   0.806   0.113
 3762SOL    HW111285   1.619   0.759   0.054
 3762SOL    HW211286   1.617   0.837   0.184
 3763SOL     OW11287   1.573   4.030   4.235
 3763SOL    HW111288   1.625   4.033   4.155
 3763SOL    HW211289   1.594   4.112   4.280
 3764SOL     OW11290   1.726   3.476   1.706
 3764SOL    HW111291   1.714   3.539   1.778
 3764SOL    HW211292   1.641   3.435   1.696
 3765SOL     OW11293   4.518   1.617   3.014
 3765SOL    HW111294   4.486   1.574   2.934
 3765SOL    HW211295   4.529   1.545   3.077
 3766SOL     OW11296   0.931   1.628   1.814
 3766SOL    HW111297   0.899   1.538   1.814
 3766SOL    HW211298   1.016   1.623   1.857
 3767SOL     OW11299   0.062   1.589   1.581
 3767SOL    HW111300   0.053   1.669   1.632
 3767SOL    HW211301  -0.026   1.570   1.550
 3768SOL     OW11302   4.788   3.658   2.158
 3768SOL    HW111303   4.829   3.575   2.132
 3768SOL    HW211304   4.858   3.706   2.203
 3769SOL     OW11305   1.909   4.362   0.133
 3769SOL    HW111306   1.975   4.340   0.198
 3769SOL    HW211307   1.887   4.454   0.151
 3770SOL     OW11308   2.831   2.644   2.376
 3770SOL    HW111309   2.889   2.679   2.445
 3770SOL    HW211310   2.868   2.558   2.356
 3771SOL     OW11311   1.471   2.350   2.145
 3771SOL    HW111312   1.466   2.416   2.076
 3771SOL    HW211313   1.507   2.273   2.101
 3772SOL     OW11314   4.260   2.671   4.994
 3772SOL    HW111315   4.181   2.682   4.941
 3772SOL    HW211316   4.317   2.614   4.942
 3773SOL     OW11317   0.072   1.878   1.270
 3773SOL    HW111318   0.070   1.957   1.216
 3773SOL    HW211319   0.089   1.807   1.209
 3774SOL     OW11320   1.781   0.436   4.399
 3774SOL    HW111321   1.775   0.344   4.372
 3774SOL    HW211322   1.691   0.459   4.425
 3775SOL     OW11323   0.412   0.273   0.297
 3775SOL    HW111324   0.380   0.326   0.223
 3775SOL    HW211325   0.487   0.322   0.331
 3776SOL     OW11326   5.080   1.419   0.157
 3776SOL    HW111327   5.150   1.469   0.117
 3776SOL    HW211328   5.097   1.425   0.251
 3777SOL     OW11329   4.716   0.705   4.232
 3777SOL    HW111330   4.622   0.703   4.247
 3777SOL    HW211331   4.753   0.653   4.304
 3778SOL     OW11332   1.169   2.679   2.328
 3778SOL    HW111333   1.135   2.666   2.417
 3778SOL    HW211334   1.255   2.638   2.329
 3779SOL     OW11335   3.938   2.619   4.362
 3779SOL    HW111336   3.851   2.605   4.399
 3779SOL    HW211337   3.930   2.591   4.271
 3780SOL     OW11338   4.683   3.197   2.589
 3780SOL    HW111339   4.703   3.275   2.536
 3780SOL    HW211340   4.701   3.224   2.679
 3781SOL     OW11341   2.929   5.065   5.090
 3781SOL    HW111342   2.978   5.075   5.172
 3781SOL    HW211343   2.870   4.991   5.106
 3782SOL     OW11344   1.015   3.898   2.919
 3782SOL    HW111345   0.992   3.813   2.881
 3782SOL    HW211346   0.954   3.908   2.992
 3783SOL     OW11347   3.545   0.851   2.244
 3783SOL    HW111348   3.556   0.837   2.338
 3783SOL    HW211349   3.634   0.865   2.212
 3784SOL     OW11350   2.488   3.103   4.671
 3784SOL    HW111351   2.461   3.072   4.584
 3784SOL    HW211352   2.440   3.185   4.682
 3785SOL     OW11353   3.213   4.783   3.583
 3785SOL    HW111354   3.200   4.823   3.670
 3785SOL    HW211355   3.201   4.856   3.522
 3786SOL     OW11356   0.187   3.097   0.985
 3786SOL    HW111357   0.103   3.114   1.027
 3786SOL    HW211358   0.200   3.002   0.994
 3787SOL     OW11359   3.835   4.695   2.083
 3787SOL    HW111360   3.846   4.726   2.173
 3787SOL    HW211361   3.917   4.720   2.040
 3788SOL     OW11362   0.168   4.513   3.541
 3788SOL    HW111363   0.141   4.496   3.451
 3788SOL    HW211364   0.140   4.603   3.558
 3789SOL     OW11365   4.437   3.553   3.778
 3789SOL    HW111366   4.484   3.476   3.810
 3789SOL    HW211367   4.480   3.574   3.695
 3790SOL     OW11368   4.157   0.903   4.295
 3790SOL    HW111369   4.074   0.914   4.342
 3790SOL    HW211370   4.131   0.876   4.207
 3791SOL     OW11371   0.404   1.820   1.290
 3791SOL    HW111372   0.427   1.796   1.380
 3791SOL    HW211373   0.456   1.761   1.235
 3792SOL     OW11374   3.876   4.251   1.972
 3792SOL    HW111375   3.817   4.269   2.045
 3792SOL    HW211376   3.852   4.163   1.943
 3793SOL     OW11377   2.381   4.372   3.741
 3793SOL    HW111378   2.459   4.408   3.697
 3793SOL    HW211379   2.342   4.314   3.676
 3794SOL     OW11380   4.092   3.539   0.280
 3794SOL    HW111381   4.076   3.582   0.196
 3794SOL    HW211382   4.070   3.447   0.264
 3795SOL     OW11383   3.985   0.057   3.698
 3795SOL    HW111384   3.915  -0.009   3.689
 3795SOL    HW211385   4.040   0.043   3.621
 3796SOL     OW11386   5.189   3.996   4.998
 3796SOL    HW111387   5.096   3.983   4.983
 3796SOL    HW211388   5.232   3.936   4.937
 3797SOL     OW11389   2.191   0.740   2.384
 3797SOL    HW111390   2.109   0.693   2.401
 3797SOL    HW211391   2.181   0.823   2.432
 3798SOL     OW11392   3.526   5.151   4.595
 3798SOL    HW111393   3.456   5.093   4.566
 3798SOL    HW211394   3.495   5.240   4.575
 3799SOL     OW11395   2.484   0.265   0.189
 3799SOL    HW111396   2.481   0.352   0.149
 3799SOL    HW211397   2.575   0.254   0.215
 3800SOL     OW11398   1.369   0.976   0.227
 3800SOL    HW111399   1.290   0.970   0.172
 3800SOL    HW211400   1.425   0.905   0.197
 3801SOL     OW11401   2.541   0.867   3.053
 3801SOL    HW111402   2.633   0.866   3.027
 3801SOL    HW211403   2.532   0.792   3.113
 3802SOL     OW11404   2.733   3.086   1.729
 3802SOL    HW111405   2.720   3.131   1.812
 3802SOL    HW211406   2.761   2.998   1.754
 3803SOL     OW11407   4.713   4.910   4.382
 3803SOL    HW111408   4.637   4.851   4.383
 3803SOL    HW211409   4.704   4.961   4.463
 3804SOL     OW11410   0.527   1.557   3.112
 3804SOL    HW111411   0.443   1.570   3.156
 3804SOL    HW211412   0.592   1.561   3.182
 3805SOL     OW11413   2.284   1.912   1.971
 3805SOL    HW111414   2.351   1.851   2.003
 3805SOL    HW211415   2.245   1.948   2.051
 3806SOL     OW11416   0.731   4.607   1.377
 3806SOL    HW111417   0.790   4.630   1.449
 3806SOL    HW211418   0.763   4.658   1.303
 3807SOL     OW11419   0.623   3.920   5.197
 3807SOL    HW111420   0.710   3.910   5.158
 3807SOL    HW211421   0.567   3.862   5.145
 3808SOL     OW11422   3.744   4.230   4.884
 3808SOL    HW111423   3.815   4.226   4.947
 3808SOL    HW211424   3.723   4.323   4.876
 3809SOL     OW11425   4.803   0.463   3.607
 3809SOL    HW111426   4.890   0.503   3.604
 3809SOL    HW211427   4.778   0.453   3.515
 3810SOL     OW11428   4.294   3.778   3.936
 3810SOL    HW111429   4.363   3.729   3.891
 3810SOL    HW211430   4.226   3.789   3.870
 3811SOL     OW11431   4.858   2.756   4.731
 3811SOL    HW111432   4.856   2.753   4.635
 3811SOL    HW211433   4.778   2.711   4.758
 3812SOL     OW11434   2.869   2.483   0.072
 3812SOL    HW111435   2.871   2.513  -0.019
 3812SOL    HW211436   2.923   2.404   0.072
 3813SOL     OW11437   0.759   3.946   2.385
 3813SOL    HW111438   0.708   3.995   2.449
 3813SOL    HW211439   0.788   3.868   2.433
 3814SOL     OW11440   4.464   2.318   3.195
 3814SOL    HW111441   4.428   2.362   3.272
 3814SOL    HW211442   4.555   2.301   3.217
 3815SOL     OW11443   1.322   3.723   4.538
 3815SOL    HW111444   1.362   3.786   4.478
 3815SOL    HW211445   1.394   3.692   4.592
 3816SOL     OW11446   0.061   2.775   3.974
 3816SOL    HW111447   0.122   2.731   4.033
 3816SOL    HW211448   0.068   2.868   3.996
 3817SOL     OW11449   4.597   0.312   2.729
 3817SOL    HW111450   4.563   0.224   2.714
 3817SOL    HW211451   4.680   0.315   2.682
 3818SOL     OW11452   4.811   0.368   0.752
 3818SOL    HW111453   4.861   0.380   0.672
 3818SOL    HW211454   4.874   0.336   0.817
 3819SOL     OW11455   4.262   1.613   3.859
 3819SOL    HW111456   4.279   1.613   3.953
 3819SOL    HW211457   4.167   1.624   3.851
 3820SOL     OW11458   4.125   1.749   5.089
 3820SOL    HW111459   4.114   1.730   5.182
 3820SOL    HW211460   4.182   1.826   5.088
 3821SOL     OW11461   0.716   0.935   2.775
 3821SOL    HW111462   0.702   1.003   2.842
 3821SOL    HW211463   0.801   0.956   2.737
 3822SOL     OW11464   3.843   0.414   4.605
 3822SOL    HW111465   3.794   0.348   4.654
 3822SOL    HW211466   3.790   0.430   4.527
 3823SOL     OW11467   3.537   2.980   1.223
 3823SOL    HW111468   3.458   2.971   1.276
 3823SOL    HW211469   3.506   3.013   1.138
 3824SOL     OW11470   2.719   1.347   0.677
 3824SOL    HW111471   2.767   1.425   0.651
 3824SOL    HW211472   2.723   1.347   0.773
 3825SOL     OW11473   2.467   5.130   4.328
 3825SOL    HW111474   2.468   5.035   4.332
 3825SOL    HW211475   2.400   5.151   4.262
 3826SOL     OW11476   1.167   3.240   2.328
 3826SOL    HW111477   1.167   3.271   2.238
 3826SOL    HW211478   1.242   3.180   2.333
 3827SOL     OW11479   3.290   3.921   5.148
 3827SOL    HW111480   3.231   3.985   5.188
 3827SOL    HW211481   3.355   3.974   5.103
 3828SOL     OW11482   4.057   3.184   3.290
 3828SOL    HW111483   4.129   3.198   3.350
 3828SOL    HW211484   4.021   3.271   3.274
 3829SOL     OW11485   2.545   1.746   4.759
 3829SOL    HW111486   2.480   1.801   4.715
 3829SOL    HW211487   2.520   1.656   4.736
 3830SOL     OW11488   1.828   1.008   4.239
 3830SOL    HW111489   1.837   1.084   4.297
 3830SOL    HW211490   1.831   0.932   4.298
 3831SOL     OW11491   2.862   2.992   3.495
 3831SOL    HW111492   2.937   2.936   3.514
 3831SOL    HW211493   2.791   2.931   3.475
 3832SOL     OW11494   1.950   2.636   3.524
 3832SOL    HW111495   2.026   2.691   3.509
 3832SOL    HW211496   1.893   2.687   3.582
 3833SOL     OW11497   1.757   0.442   0.870
 3833SOL    HW111498   1.689   0.393   0.917
 3833SOL    HW211499   1.824   0.459   0.937
 3834SOL     OW11500   2.650   4.226   4.707
 3834SOL    HW111501   2.671   4.207   4.615
 3834SOL    HW211502   2.656   4.141   4.751
 3835SOL     OW11503   1.449   1.022   5.101
 3835SOL    HW111504   1.528   1.074   5.087
 3835SOL    HW211505   1.457   0.990   5.191
 3836SOL     OW11506   3.630   2.650   0.283
 3836SOL    HW111507   3.625   2.591   0.208
 3836SOL    HW211508   3.607   2.595   0.359
 3837SOL     OW11509   3.334   0.301   2.552
 3837SOL    HW111510   3.276   0.255   2.612
 3837SOL    HW211511   3.279   0.370   2.514
 3838SOL     OW11512   3.043   4.708   0.830
 3838SOL    HW111513   2.985   4.776   0.796
 3838SOL    HW211514   2.984   4.645   0.871
 3839SOL     OW11515   4.738   0.210   3.658
 3839SOL    HW111516   4.648   0.213   3.628
 3839SOL    HW211517   4.769   0.300   3.651
 3840SOL     OW11518   0.249   2.370   1.746
 3840SOL    HW111519   0.198   2.311   1.802
 3840SOL    HW211520   0.184   2.409   1.687
 3841SOL     OW11521   2.142   0.026   0.051
 3841SOL    HW111522   2.194   0.025  -0.030
 3841SOL    HW211523   2.165   0.109   0.093
 3842SOL     OW11524   0.539   0.318   1.694
 3842SOL    HW111525   0.540   0.222   1.697
 3842SOL    HW211526   0.500   0.338   1.608
 3843SOL     OW11527   1.164   0.303   1.270
 3843SOL    HW111528   1.244   0.296   1.323
 3843SOL    HW211529   1.097   0.257   1.321
 3844SOL     OW11530   3.807   5.008   3.229
 3844SOL    HW111531   3.823   4.921   3.267
 3844SOL    HW211532   3.739   5.046   3.285
 3845SOL     OW11533   1.310   5.169   0.751
 3845SOL    HW111534   1.339   5.079   0.743
 3845SOL    HW211535   1.388   5.222   0.732
 3846SOL     OW11536   4.261   4.535   5.145
 3846SOL    HW111537   4.235   4.456   5.191
 3846SOL    HW211538   4.181   4.567   5.104
 3847SOL     OW11539   5.064   4.295   1.867
 3847SOL    HW111540   4.995   4.296   1.934
 3847SOL    HW211541   5.123   4.366   1.893
 3848SOL     OW11542   2.884   1.160   3.999
 3848SOL    HW111543   2.806   1.124   3.957
 3848SOL    HW211544   2.858   1.249   4.025
 3849SOL     OW11545   3.126   4.321   0.694
 3849SOL    HW111546   3.219   4.327   0.673
 3849SOL    HW211547   3.101   4.232   0.668
 3850SOL     OW11548   2.817   1.699   2.831
 3850SOL    HW111549   2.751   1.709   2.763
 3850SOL    HW211550   2.890   1.753   2.801
 3851SOL     OW11551   3.072   2.492   1.195
 3851SOL    HW111552   3.136   2.558   1.224
 3851SOL    HW211553   3.031   2.461   1.275
 3852SOL     OW11554   0.788   1.728   3.511
 3852SOL    HW111555   0.873   1.707   3.550
 3852SOL    HW211556   0.743   1.778   3.579
 3853SOL     OW11557   4.285   3.536   3.188
 3853SOL    HW111558   4.334   3.456   3.169
 3853SOL    HW211559   4.269   3.576   3.103
 3854SOL     OW11560   4.438   3.451   2.066
 3854SOL    HW111561   4.508   3.407   2.114
 3854SOL    HW211562   4.452   3.544   2.082
 3855SOL     OW11563   4.453   4.027   3.719
 3855SOL    HW111564   4.504   4.014   3.799
 3855SOL    HW211565   4.467   3.947   3.669
 3856SOL     OW11566   0.745   2.195   0.054
 3856SOL    HW111567   0.693   2.198  -0.026
 3856SOL    HW211568   0.686   2.157   0.119
 3857SOL     OW11569   3.725   0.618   0.226
 3857SOL    HW111570   3.704   0.597   0.317
 3857SOL    HW211571   3.733   0.713   0.225
 3858SOL     OW11572   1.887   4.490   1.993
 3858SOL    HW111573   1.948   4.482   2.066
 3858SOL    HW211574   1.860   4.582   1.995
 3859SOL     OW11575   4.795   3.951   1.589
 3859SOL    HW111576   4.798   3.921   1.498
 3859SOL    HW211577   4.828   4.040   1.586
 3860SOL     OW11578   3.285   3.601   4.741
 3860SOL    HW111579   3.200   3.563   4.722
 3860SOL    HW211580   3.292   3.599   4.836
 3861SOL     OW11581   1.917   0.066   0.637
 3861SOL    HW111582   1.928  -0.020   0.678
 3861SOL    HW211583   1.982   0.068   0.567
 3862SOL     OW11584   2.134   5.021   3.665
 3862SOL    HW111585   2.220   5.040   3.702
 3862SOL    HW211586   2.109   4.937   3.704
 3863SOL     OW11587   3.106   4.723   3.985
 3863SOL    HW111588   3.194   4.685   3.989
 3863SOL    HW211589   3.074   4.720   4.075
 3864SOL     OW11590   3.280   3.054   3.339
 3864SOL    HW111591   3.286   3.047   3.435
 3864SOL    HW211592   3.355   3.004   3.307
 3865SOL     OW11593   1.496   1.608   4.123
 3865SOL    HW111594   1.497   1.672   4.052
 3865SOL    HW211595   1.427   1.547   4.099
 3866SOL     OW11596   2.206   0.450   4.977
 3866SOL    HW111597   2.295   0.414   4.975
 3866SOL    HW211598   2.194   0.492   4.892
 3867SOL     OW11599   3.859   3.420   5.040
 3867SOL    HW111600   3.835   3.479   5.112
 3867SOL    HW211601   3.821   3.460   4.962
 3868SOL     OW11602   0.667   2.957   3.812
 3868SOL    HW111603   0.621   2.899   3.874
 3868SOL    HW211604   0.751   2.914   3.797
 3869SOL     OW11605   1.529   1.569   1.037
 3869SOL    HW111606   1.605   1.596   0.987
 3869SOL    HW211607   1.476   1.648   1.045
 3870SOL     OW11608   1.218   2.712   3.059
 3870SOL    HW111609   1.169   2.778   3.011
 3870SOL    HW211610   1.214   2.634   3.005
 3871SOL     OW11611   0.324   5.059   2.796
 3871SOL    HW111612   0.380   4.990   2.832
 3871SOL    HW211613   0.382   5.108   2.738
 3872SOL     OW11614   3.607   1.045   4.619
 3872SOL    HW111615   3.564   1.129   4.603
 3872SOL    HW211616   3.696   1.069   4.645
 3873SOL     OW11617   2.819   1.657   2.207
 3873SOL    HW111618   2.878   1.640   2.134
 3873SOL    HW211619   2.811   1.753   2.209
 3874SOL     OW11620   4.856   2.384   0.178
 3874SOL    HW111621   4.821   2.356   0.262
 3874SOL    HW211622   4.862   2.303   0.126
 3875SOL     OW11623   1.150   1.381   3.302
 3875SOL    HW111624   1.208   1.448   3.266
 3875SOL    HW211625   1.184   1.365   3.390
 3876SOL     OW11626   3.523   3.762   4.928
 3876SOL    HW111627   3.614   3.750   4.954
 3876SOL    HW211628   3.502   3.852   4.951
 3877SOL     OW11629   0.367   3.580   4.199
 3877SOL    HW111630   0.462   3.566   4.205
 3877SOL    HW211631   0.358   3.660   4.148
 3878SOL     OW11632   3.848   1.432   4.544
 3878SOL    HW111633   3.772   1.437   4.603
 3878SOL    HW211634   3.861   1.521   4.514
 3879SOL     OW11635   5.066   3.363   4.636
 3879SOL    HW111636   5.125   3.397   4.704
 3879SOL    HW211637   5.117   3.294   4.594
 3880SOL     OW11638   0.169   5.010   1.306
 3880SOL    HW111639   0.145   5.009   1.399
 3880SOL    HW211640   0.101   4.958   1.263
 3881SOL     OW11641   3.680   2.168   2.022
 3881SOL    HW111642   3.641   2.224   2.089
 3881SOL    HW211643   3.614   2.163   1.953
 3882SOL     OW11644   0.086   1.045   1.375
 3882SOL    HW111645   0.129   1.026   1.292
 3882SOL    HW211646   0.016   0.980   1.382
 3883SOL     OW11647   3.997   4.509   0.954
 3883SOL    HW111648   3.949   4.430   0.930
 3883SOL    HW211649   4.018   4.498   1.046
 3884SOL     OW11650   4.209   2.351   2.972
 3884SOL    HW111651   4.259   2.350   2.891
 3884SOL    HW211652   4.208   2.443   2.999
 3885SOL     OW11653   3.875   0.281   2.437
 3885SOL    HW111654   3.784   0.303   2.455
 3885SOL    HW211655   3.919   0.366   2.431
 3886SOL     OW11656   2.803   2.358   2.701
 3886SOL    HW111657   2.732   2.384   2.642
 3886SOL    HW211658   2.760   2.303   2.766
 3887SOL     OW11659   2.230   4.748   0.227
 3887SOL    HW111660   2.187   4.787   0.303
 3887SOL    HW211661   2.300   4.809   0.204
 3888SOL     OW11662   4.338   2.447   2.724
 3888SOL    HW111663   4.431   2.456   2.743
 3888SOL    HW211664   4.299   2.530   2.752
 3889SOL     OW11665   3.491   3.008   2.679
 3889SOL    HW111666   3.554   3.073   2.709
 3889SOL    HW211667   3.442   2.985   2.758
 3890SOL     OW11668   1.626   4.530   1.314
 3890SOL    HW111669   1.623   4.462   1.246
 3890SOL    HW211670   1.542   4.523   1.359
 3891SOL     OW11671   4.470   3.050   4.681
 3891SOL    HW111672   4.387   3.071   4.638
 3891SOL    HW211673   4.479   3.116   4.750
 3892SOL     OW11674   1.761   4.438   0.995
 3892SOL    HW111675   1.778   4.453   0.902
 3892SOL    HW211676   1.670   4.408   0.998
 3893SOL     OW11677   3.117   4.013   2.505
 3893SOL    HW111678   3.204   3.976   2.515
 3893SOL    HW211679   3.067   3.946   2.459
 3894SOL     OW11680   1.600   3.039   4.338
 3894SOL    HW111681   1.561   3.089   4.410
 3894SOL    HW211682   1.528   2.985   4.305
 3895SOL     OW11683   1.369   4.465   2.051
 3895SOL    HW111684   1.283   4.447   2.013
 3895SOL    HW211685   1.354   4.464   2.145
 3896SOL     OW11686   1.935   0.869   4.886
 3896SOL    HW111687   1.951   0.787   4.933
 3896SOL    HW211688   1.895   0.841   4.803
 3897SOL     OW11689   0.077   0.995   0.890
 3897SOL    HW111690   0.021   1.073   0.895
 3897SOL    HW211691   0.117   0.988   0.977
 3898SOL     OW11692   3.761   3.591   4.836
 3898SOL    HW111693   3.828   3.556   4.778
 3898SOL    HW211694   3.802   3.668   4.876
 3899SOL     OW11695   2.955   2.459   2.022
 3899SOL    HW111696   3.006   2.537   2.046
 3899SOL    HW211697   2.915   2.431   2.105
 3900SOL     OW11698   3.341   4.651   0.853
 3900SOL    HW111699   3.353   4.746   0.845
 3900SOL    HW211700   3.251   4.636   0.826
 3901SOL     OW11701   1.967   4.019   4.889
 3901SOL    HW111702   1.909   4.042   4.962
 3901SOL    HW211703   2.055   4.031   4.924
 3902SOL     OW11704   2.134   3.106   1.048
 3902SOL    HW111705   2.141   3.169   1.120
 3902SOL    HW211706   2.221   3.102   1.010
 3903SOL     OW11707   1.586   3.812   4.402
 3903SOL    HW111708   1.607   3.850   4.487
 3903SOL    HW211709   1.568   3.887   4.346
 3904SOL     OW11710   3.287   0.813   2.508
 3904SOL    HW111711   3.342   0.744   2.470
 3904SOL    HW211712   3.249   0.857   2.432
 3905SOL     OW11713   0.023   1.321   0.644
 3905SOL    HW111714   0.097   1.262   0.653
 3905SOL    HW211715   0.055   1.392   0.588
 3906SOL     OW11716   3.507   3.443   4.729
 3906SOL    HW111717   3.568   3.444   4.802
 3906SOL    HW211718   3.448   3.516   4.745
 3907SOL     OW11719   1.416   2.567   1.663
 3907SOL    HW111720   1.498   2.558   1.615
 3907SOL    HW211721   1.379   2.478   1.665
 3908SOL     OW11722   1.311   1.927   4.035
 3908SOL    HW111723   1.323   1.944   4.129
 3908SOL    HW211724   1.258   1.848   4.032
 3909SOL     OW11725   5.121   4.213   0.287
 3909SOL    HW111726   5.127   4.188   0.195
 3909SOL    HW211727   5.189   4.280   0.297
 3910SOL     OW11728   0.437   0.565   3.644
 3910SOL    HW111729   0.476   0.573   3.732
 3910SOL    HW211730   0.511   0.573   3.584
 3911SOL     OW11731   0.569   3.647   1.086
 3911SOL    HW111732   0.598   3.735   1.108
 3911SOL    HW211733   0.479   3.642   1.120
 3912SOL     OW11734   4.089   0.616   0.197
 3912SOL    HW111735   4.182   0.601   0.181
 3912SOL    HW211736   4.047   0.603   0.112
 3913SOL     OW11737   4.291   0.889   2.845
 3913SOL    HW111738   4.368   0.939   2.818
 3913SOL    HW211739   4.258   0.850   2.765
 3914SOL     OW11740   1.276   1.731   4.684
 3914SOL    HW111741   1.277   1.679   4.604
 3914SOL    HW211742   1.194   1.709   4.727
 3915SOL     OW11743   4.335   1.268   1.786
 3915SOL    HW111744   4.257   1.231   1.744
 3915SOL    HW211745   4.334   1.232   1.875
 3916SOL     OW11746   4.608   2.210   4.716
 3916SOL    HW111747   4.657   2.240   4.792
 3916SOL    HW211748   4.516   2.211   4.745
 3917SOL     OW11749   1.960   1.345   1.001
 3917SOL    HW111750   2.046   1.311   0.976
 3917SOL    HW211751   1.948   1.315   1.091
 3918SOL     OW11752   2.841   0.910   0.503
 3918SOL    HW111753   2.880   0.878   0.421
 3918SOL    HW211754   2.746   0.906   0.488
 3919SOL     OW11755   0.449   3.889   3.017
 3919SOL    HW111756   0.406   3.958   3.067
 3919SOL    HW211757   0.414   3.807   3.054
 3920SOL     OW11758   1.674   2.657   3.005
 3920SOL    HW111759   1.749   2.624   3.055
 3920SOL    HW211760   1.645   2.583   2.952
 3921SOL     OW11761   3.684   1.876   2.807
 3921SOL    HW111762   3.688   1.842   2.896
 3921SOL    HW211763   3.677   1.971   2.818
 3922SOL     OW11764   4.481   0.074   0.162
 3922SOL    HW111765   4.401   0.047   0.207
 3922SOL    HW211766   4.487   0.017   0.086
 3923SOL     OW11767   3.745   0.363   3.755
 3923SOL    HW111768   3.718   0.286   3.706
 3923SOL    HW211769   3.757   0.432   3.689
 3924SOL     OW11770   5.067   1.380   1.815
 3924SOL    HW111771   4.988   1.427   1.788
 3924SOL    HW211772   5.051   1.290   1.788
 3925SOL     OW11773   0.323   4.244   1.970
 3925SOL    HW111774   0.283   4.241   1.884
 3925SOL    HW211775   0.254   4.216   2.030
 3926SOL     OW11776   4.757   4.212   3.227
 3926SOL    HW111777   4.696   4.142   3.205
 3926SOL    HW211778   4.793   4.240   3.143
 3927SOL     OW11779   2.536   0.228   4.929
 3927SOL    HW111780   2.572   0.150   4.888
 3927SOL    HW211781   2.511   0.285   4.856
 3928SOL     OW11782   0.139   3.557   2.605
 3928SOL    HW111783   0.074   3.497   2.640
 3928SOL    HW211784   0.144   3.536   2.511
 3929SOL     OW11785   0.124   2.027   3.027
 3929SOL    HW111786   0.094   1.938   3.008
 3929SOL    HW211787   0.118   2.034   3.123
 3930SOL     OW11788   4.782   4.811   2.417
 3930SOL    HW111789   4.862   4.762   2.397
 3930SOL    HW211790   4.796   4.846   2.505
 3931SOL     OW11791   2.053   1.567   4.229
 3931SOL    HW111792   2.016   1.482   4.207
 3931SOL    HW211793   1.978   1.626   4.235
 3932SOL     OW11794   0.963   0.974   4.168
 3932SOL    HW111795   1.037   0.914   4.175
 3932SOL    HW211796   0.886   0.917   4.170
 3933SOL     OW11797   1.765   3.705   4.076
 3933SOL    HW111798   1.736   3.653   4.152
 3933SOL    HW211799   1.796   3.787   4.114
 3934SOL     OW11800   1.467   0.812   3.115
 3934SOL    HW111801   1.454   0.717   3.112
 3934SOL    HW211802   1.561   0.823   3.130
 3935SOL     OW11803   2.721   3.510   3.114
 3935SOL    HW111804   2.810   3.528   3.144
 3935SOL    HW211805   2.707   3.570   3.041
 3936SOL     OW11806   4.002   0.056   0.252
 3936SOL    HW111807   3.946   0.118   0.300
 3936SOL    HW211808   4.034   0.106   0.177
 3937SOL     OW11809   3.063   0.101   3.676
 3937SOL    HW111810   3.147   0.056   3.684
 3937SOL    HW211811   3.017   0.056   3.606
 3938SOL     OW11812   0.615   4.975   4.174
 3938SOL    HW111813   0.626   4.885   4.204
 3938SOL    HW211814   0.555   5.014   4.237
 3939SOL     OW11815   3.940   3.292   1.055
 3939SOL    HW111816   3.999   3.302   1.130
 3939SOL    HW211817   3.895   3.209   1.071
 3940SOL     OW11818   2.103   4.336   3.763
 3940SOL    HW111819   2.089   4.371   3.676
 3940SOL    HW211820   2.193   4.362   3.785
 3941SOL     OW11821   3.499   0.469   4.789
 3941SOL    HW111822   3.411   0.507   4.794
 3941SOL    HW211823   3.511   0.452   4.695
 3942SOL     OW11824   0.797   1.757   4.996
 3942SOL    HW111825   0.835   1.844   4.995
 3942SOL    HW211826   0.850   1.708   5.059
 3943SOL     OW11827   1.921   4.281   1.446
 3943SOL    HW111828   2.005   4.260   1.485
 3943SOL    HW211829   1.857   4.233   1.499
 3944SOL     OW11830   3.824   4.455   3.385
 3944SOL    HW111831   3.870   4.538   3.385
 3944SOL    HW211832   3.755   4.466   3.450
 3945SOL     OW11833   3.418   3.538   3.858
 3945SOL    HW111834   3.430   3.633   3.866
 3945SOL    HW211835   3.503   3.501   3.881
 3946SOL     OW11836   1.441   1.983   2.421
 3946SOL    HW111837   1.477   2.012   2.505
 3946SOL    HW211838   1.414   1.893   2.436
 3947SOL     OW11839   3.376   1.804   0.829
 3947SOL    HW111840   3.444   1.767   0.772
 3947SOL    HW211841   3.324   1.859   0.771
 3948SOL     OW11842   1.518   0.601   2.010
 3948SOL    HW111843   1.457   0.654   2.061
 3948SOL    HW211844   1.480   0.600   1.922
 3949SOL     OW11845   3.674   2.353   5.125
 3949SOL    HW111846   3.724   2.321   5.201
 3949SOL    HW211847   3.597   2.395   5.163
 3950SOL     OW11848   0.633   0.453   0.087
 3950SOL    HW111849   0.712   0.503   0.065
 3950SOL    HW211850   0.644   0.371   0.039
 3951SOL     OW11851   1.575   0.263   4.951
 3951SOL    HW111852   1.596   0.169   4.953
 3951SOL    HW211853   1.579   0.286   4.859
 3952SOL     OW11854   4.967   2.139   0.174
 3952SOL    HW111855   5.005   2.144   0.262
 3952SOL    HW211856   4.883   2.096   0.187
 3953SOL     OW11857   0.527   1.269   2.759
 3953SOL    HW111858   0.547   1.361   2.776
 3953SOL    HW211859   0.612   1.231   2.735
 3954SOL     OW11860   3.840   1.111   4.754
 3954SOL    HW111861   3.850   1.174   4.826
 3954SOL    HW211862   3.896   1.145   4.685
 3955SOL     OW11863   4.349   1.161   3.417
 3955SOL    HW111864   4.307   1.171   3.331
 3955SOL    HW211865   4.336   1.069   3.439
 3956SOL     OW11866   4.954   2.775   3.270
 3956SOL    HW111867   5.022   2.709   3.286
 3956SOL    HW211868   4.968   2.840   3.338
 3957SOL     OW11869   1.487   1.494   0.706
 3957SOL    HW111870   1.555   1.554   0.675
 3957SOL    HW211871   1.526   1.451   0.782
 3958SOL     OW11872   2.650   3.506   1.836
 3958SOL    HW111873   2.558   3.481   1.849
 3958SOL    HW211874   2.673   3.469   1.751
 3959SOL     OW11875   2.458   1.772   3.269
 3959SOL    HW111876   2.449   1.834   3.341
 3959SOL    HW211877   2.534   1.803   3.220
 3960SOL     OW11878   4.924   2.216   3.845
 3960SOL    HW111879   4.839   2.255   3.867
 3960SOL    HW211880   4.913   2.185   3.754
 3961SOL     OW11881   0.343   3.498   0.309
 3961SOL    HW111882   0.267   3.554   0.291
 3961SOL    HW211883   0.339   3.481   0.403
 3962SOL     OW11884   3.971   3.799   2.972
 3962SOL    HW111885   3.936   3.746   3.043
 3962SOL    HW211886   3.908   3.788   2.901
 3963SOL     OW11887   3.348   3.344   2.691
 3963SOL    HW111888   3.439   3.318   2.699
 3963SOL    HW211889   3.302   3.293   2.757
 3964SOL     OW11890   0.799   5.015   0.635
 3964SOL    HW111891   0.791   5.096   0.685
 3964SOL    HW211892   0.750   5.031   0.555
 3965SOL     OW11893   1.601   3.069   2.971
 3965SOL    HW111894   1.588   3.021   3.053
 3965SOL    HW211895   1.686   3.111   2.981
 3966SOL     OW11896   0.974   2.975   0.737
 3966SOL    HW111897   1.036   2.904   0.756
 3966SOL    HW211898   0.891   2.931   0.719
 3967SOL     OW11899   3.498   1.540   2.542
 3967SOL    HW111900   3.568   1.521   2.480
 3967SOL    HW211901   3.454   1.456   2.554
 3968SOL     OW11902   2.426   0.151   2.932
 3968SOL    HW111903   2.455   0.241   2.941
 3968SOL    HW211904   2.446   0.111   3.017
 3969SOL     OW11905   3.385   4.148   1.113
 3969SOL    HW111906   3.386   4.243   1.103
 3969SOL    HW211907   3.382   4.114   1.024
 3970SOL     OW11908   2.716   4.374   3.054
 3970SOL    HW111909   2.739   4.308   3.120
 3970SOL    HW211910   2.622   4.362   3.041
 3971SOL     OW11911   4.647   4.659   0.755
 3971SOL    HW111912   4.555   4.630   0.761
 3971SOL    HW211913   4.665   4.697   0.841
 3972SOL     OW11914   1.439   0.564   1.758
 3972SOL    HW111915   1.489   0.605   1.687
 3972SOL    HW211916   1.361   0.528   1.715
 3973SOL     OW11917   1.028   4.440   0.031
 3973SOL    HW111918   1.097   4.388   0.074
 3973SOL    HW211919   0.992   4.494   0.101
 3974SOL     OW11920   3.123   3.818   3.543
 3974SOL    HW111921   3.196   3.872   3.511
 3974SOL    HW211922   3.095   3.768   3.466
 3975SOL     OW11923   4.228   4.940   1.184
 3975SOL    HW111924   4.204   5.023   1.226
 3975SOL    HW211925   4.150   4.886   1.194
 3976SOL     OW11926   4.392   0.758   0.745
 3976SOL    HW111927   4.484   0.733   0.748
 3976SOL    HW211928   4.357   0.733   0.831
 3977SOL     OW11929   0.694   4.045   3.415
 3977SOL    HW111930   0.653   4.021   3.498
 3977SOL    HW211931   0.685   4.140   3.411
 3978SOL     OW11932   3.955   4.918   3.768
 3978SOL    HW111933   4.019   4.866   3.718
 3978SOL    HW211934   3.904   4.853   3.816
 3979SOL     OW11935   1.696   4.614   3.444
 3979SOL    HW111936   1.686   4.708   3.461
 3979SOL    HW211937   1.607   4.579   3.449
 3980SOL     OW11938   1.403   2.455   2.657
 3980SOL    HW111939   1.343   2.499   2.717
 3980SOL    HW211940   1.346   2.406   2.598
 3981SOL     OW11941   3.251   1.496   1.204
 3981SOL    HW111942   3.228   1.528   1.116
 3981SOL    HW211943   3.307   1.565   1.240
 3982SOL     OW11944   3.093   1.946   3.244
 3982SOL    HW111945   3.172   1.908   3.206
 3982SOL    HW211946   3.124   1.995   3.320
 3983SOL     OW11947   4.908   1.673   0.077
 3983SOL    HW111948   4.867   1.684  -0.009
 3983SOL    HW211949   4.914   1.578   0.089
 3984SOL     OW11950   0.483   3.524   4.740
 3984SOL    HW111951   0.547   3.517   4.670
 3984SOL    HW211952   0.532   3.505   4.820
 3985SOL     OW11953   0.193   4.802   3.622
 3985SOL    HW111954   0.265   4.851   3.661
 3985SOL    HW211955   0.136   4.779   3.696
 3986SOL     OW11956   2.451   4.993   2.741
 3986SOL    HW111957   2.422   5.081   2.718
 3986SOL    HW211958   2.529   4.979   2.686
 3987SOL     OW11959   3.231   3.769   1.808
 3987SOL    HW111960   3.211   3.756   1.715
 3987SOL    HW211961   3.148   3.797   1.847
 3988SOL     OW11962   3.340   2.119   4.214
 3988SOL    HW111963   3.289   2.054   4.263
 3988SOL    HW211964   3.430   2.086   4.218
 3989SOL     OW11965   3.305   3.200   0.173
 3989SOL    HW111966   3.379   3.185   0.232
 3989SOL    HW211967   3.345   3.224   0.089
 3990SOL     OW11968   2.385   0.906   5.120
 3990SOL    HW111969   2.320   0.907   5.049
 3990SOL    HW211970   2.341   0.947   5.194
 3991SOL     OW11971   3.689   2.041   3.982
 3991SOL    HW111972   3.725   2.115   4.030
 3991SOL    HW211973   3.622   2.005   4.039
 3992SOL     OW11974   2.937   5.143   1.762
 3992SOL    HW111975   3.016   5.176   1.719
 3992SOL    HW211976   2.962   5.057   1.796
 3993SOL     OW11977   4.454   0.259   2.974
 3993SOL    HW111978   4.521   0.280   2.909
 3993SOL    HW211979   4.493   0.190   3.028
 3994SOL     OW11980   3.152   4.990   2.109
 3994SOL    HW111981   3.113   5.070   2.143
 3994SOL    HW211982   3.240   5.017   2.080
 3995SOL     OW11983   4.010   5.023   0.922
 3995SOL    HW111984   3.921   5.026   0.887
 3995SOL    HW211985   4.003   4.971   1.001
 3996SOL     OW11986   1.111   1.509   1.581
 3996SOL    HW111987   1.060   1.575   1.629
 3996SOL    HW211988   1.077   1.425   1.612
 3997SOL     OW11989   0.465   0.530   4.729
 3997SOL    HW111990   0.491   0.599   4.667
 3997SOL    HW211991   0.461   0.451   4.676
 3998SOL     OW11992   4.994   0.919   0.537
 3998SOL    HW111993   5.016   0.827   0.547
 3998SOL    HW211994   4.903   0.925   0.565
 3999SOL     OW11995   1.535   2.942   4.978
 3999SOL    HW111996   1.452   2.965   5.018
 3999SOL    HW211997   1.591   3.018   4.991
 4000SOL     OW11998   0.196   0.894   1.171
 4000SOL    HW111999   0.129   0.844   1.124
 4000SOL    HW212000   0.253   0.828   1.209
 4001SOL     OW12001   3.748   3.174   0.670
 4001SOL    HW112002   3.841   3.194   0.678
 4001SOL    HW212003   3.708   3.258   0.647
 4002SOL     OW12004   0.616   0.564   3.106
 4002SOL    HW112005   0.678   0.510   3.156
 4002SOL    HW212006   0.667   0.640   3.080
 4003SOL     OW12007   2.043   3.338   0.905
 4003SOL    HW112008   1.963   3.342   0.853
 4003SOL    HW212009   2.043   3.250   0.942
 4004SOL     OW12010   1.553   3.287   3.511
 4004SOL    HW112011   1.553   3.195   3.488
 4004SOL    HW212012   1.460   3.311   3.514
 4005SOL     OW12013   1.647   3.335   0.131
 4005SOL    HW112014   1.687   3.421   0.147
 4005SOL    HW212015   1.682   3.279   0.201
 4006SOL     OW12016   0.931   2.010   5.096
 4006SOL    HW112017   0.880   2.089   5.116
 4006SOL    HW212018   1.004   2.012   5.158
 4007SOL     OW12019   1.598   5.016   3.038
 4007SOL    HW112020   1.559   4.986   2.956
 4007SOL    HW212021   1.660   4.948   3.061
 4008SOL     OW12022   2.015   1.918   4.031
 4008SOL    HW112023   1.950   1.981   4.062
 4008SOL    HW212024   2.068   1.967   3.968
 4009SOL     OW12025   5.201   0.849   3.704
 4009SOL    HW112026   5.220   0.770   3.655
 4009SOL    HW212027   5.114   0.875   3.674
 4010SOL     OW12028   2.605   2.245   2.073
 4010SOL    HW112029   2.689   2.270   2.112
 4010SOL    HW212030   2.629   2.209   1.987
 4011SOL     OW12031   0.831   4.005   2.131
 4011SOL    HW112032   0.824   3.973   2.221
 4011SOL    HW212033   0.748   3.979   2.090
 4012SOL     OW12034   1.285   1.849   4.954
 4012SOL    HW112035   1.220   1.894   5.009
 4012SOL    HW212036   1.296   1.906   4.878
 4013SOL     OW12037   2.510   3.042   3.097
 4013SOL    HW112038   2.560   3.118   3.067
 4013SOL    HW212039   2.479   3.000   3.017
 4014SOL     OW12040   1.469   4.462   4.459
 4014SOL    HW112041   1.436   4.374   4.475
 4014SOL    HW212042   1.397   4.520   4.484
 4015SOL     OW12043   0.322   3.889   1.711
 4015SOL    HW112044   0.319   3.794   1.703
 4015SOL    HW212045   0.410   3.908   1.745
 4016SOL     OW12046   4.049   0.643   2.902
 4016SOL    HW112047   4.057   0.738   2.894
 4016SOL    HW212048   4.136   0.610   2.883
 4017SOL     OW12049   2.124   4.085   0.131
 4017SOL    HW112050   2.117   4.160   0.189
 4017SOL    HW212051   2.045   4.033   0.149
 4018SOL     OW12052   0.893   3.466   0.958
 4018SOL    HW112053   0.890   3.545   1.011
 4018SOL    HW212054   0.927   3.495   0.873
 4019SOL     OW12055   3.927   3.555   1.346
 4019SOL    HW112056   4.007   3.603   1.370
 4019SOL    HW212057   3.940   3.468   1.383
 4020SOL     OW12058   3.276   2.416   2.093
 4020SOL    HW112059   3.209   2.467   2.047
 4020SOL    HW212060   3.268   2.442   2.185
 4021SOL     OW12061   2.092   4.286   0.326
 4021SOL    HW112062   2.133   4.371   0.346
 4021SOL    HW212063   2.115   4.231   0.400
 4022SOL     OW12064   4.276   3.663   2.962
 4022SOL    HW112065   4.266   3.659   2.867
 4022SOL    HW212066   4.230   3.743   2.988
 4023SOL     OW12067   0.389   1.660   2.524
 4023SOL    HW112068   0.306   1.632   2.561
 4023SOL    HW212069   0.443   1.681   2.601
 4024SOL     OW12070   1.857   3.301   2.182
 4024SOL    HW112071   1.923   3.356   2.138
 4024SOL    HW212072   1.845   3.227   2.123
 4025SOL     OW12073   2.465   2.095   0.692
 4025SOL    HW112074   2.392   2.033   0.690
 4025SOL    HW212075   2.424   2.180   0.704
 4026SOL     OW12076   3.266   0.905   3.431
 4026SOL    HW112077   3.181   0.890   3.471
 4026SOL    HW212078   3.277   1.000   3.434
 4027SOL     OW12079   1.133   4.971   4.198
 4027SOL    HW112080   1.098   4.938   4.115
 4027SOL    HW212081   1.056   5.000   4.247
 4028SOL     OW12082   4.305   2.509   4.616
 4028SOL    HW112083   4.271   2.436   4.668
 4028SOL    HW212084   4.382   2.539   4.664
 4029SOL     OW12085   0.003   0.619   3.330
 4029SOL    HW112086   0.027   0.710   3.311
 4029SOL    HW212087   0.062   0.568   3.274
 4030SOL     OW12088   2.788   3.252   0.213
 4030SOL    HW112089   2.739   3.333   0.222
 4030SOL    HW212090   2.738   3.201   0.149
 4031SOL     OW12091   2.212   0.411   4.144
 4031SOL    HW112092   2.147   0.451   4.086
 4031SOL    HW212093   2.160   0.360   4.206
 4032SOL     OW12094   4.796   1.254   0.273
 4032SOL    HW112095   4.824   1.254   0.364
 4032SOL    HW212096   4.721   1.195   0.270
 4033SOL     OW12097   0.414   2.462   0.613
 4033SOL    HW112098   0.429   2.553   0.590
 4033SOL    HW212099   0.501   2.426   0.631
 4034SOL     OW12100   3.764   3.770   4.109
 4034SOL    HW112101   3.740   3.683   4.142
 4034SOL    HW212102   3.768   3.825   4.187
 4035SOL     OW12103   0.994   1.203   1.927
 4035SOL    HW112104   1.046   1.205   2.007
 4035SOL    HW212105   0.961   1.113   1.922
 4036SOL     OW12106   3.090   2.703   3.951
 4036SOL    HW112107   3.100   2.790   3.913
 4036SOL    HW212108   3.177   2.679   3.981
 4037SOL     OW12109   4.485   4.560   1.938
 4037SOL    HW112110   4.480   4.467   1.956
 4037SOL    HW212111   4.430   4.601   2.005
 4038SOL     OW12112   4.243   2.692   1.060
 4038SOL    HW112113   4.280   2.771   1.020
 4038SOL    HW212114   4.317   2.633   1.068
 4039SOL     OW12115   0.973   4.582   1.867
 4039SOL    HW112116   1.007   4.516   1.927
 4039SOL    HW212117   0.881   4.592   1.891
 4040SOL     OW12118   4.975   0.126   1.868
 4040SOL    HW112119   4.889   0.144   1.906
 4040SOL    HW212120   4.998   0.206   1.820
 4041SOL     OW12121   1.015   3.299   4.197
 4041SOL    HW112122   0.999   3.241   4.271
 4041SOL    HW212123   1.107   3.323   4.205
 4042SOL     OW12124   3.467   4.831   3.986
 4042SOL    HW112125   3.526   4.905   3.971
 4042SOL    HW212126   3.440   4.804   3.898
 4043SOL     OW12127   1.636   0.321   4.681
 4043SOL    HW112128   1.723   0.287   4.662
 4043SOL    HW212129   1.576   0.255   4.646
 4044SOL     OW12130   4.765   2.416   3.929
 4044SOL    HW112131   4.818   2.438   4.006
 4044SOL    HW212132   4.730   2.500   3.900
 4045SOL     OW12133   3.646   1.389   3.883
 4045SOL    HW112134   3.599   1.330   3.941
 4045SOL    HW212135   3.736   1.389   3.916
 4046SOL     OW12136   2.159   2.244   3.618
 4046SOL    HW112137   2.068   2.237   3.588
 4046SOL    HW212138   2.176   2.338   3.623
 4047SOL     OW12139   3.352   4.120   2.201
 4047SOL    HW112140   3.404   4.163   2.269
 4047SOL    HW212141   3.261   4.134   2.227
 4048SOL     OW12142   1.111   1.302   4.599
 4048SOL    HW112143   1.028   1.264   4.567
 4048SOL    HW212144   1.167   1.226   4.614
 4049SOL     OW12145   3.283   0.055   1.451
 4049SOL    HW112146   3.225   0.116   1.497
 4049SOL    HW212147   3.294  -0.018   1.512
 4050SOL     OW12148   1.923   2.338   4.117
 4050SOL    HW112149   1.973   2.416   4.141
 4050SOL    HW212150   1.941   2.326   4.023
 4051SOL     OW12151   0.891   3.813   1.409
 4051SOL    HW112152   0.796   3.816   1.404
 4051SOL    HW212153   0.920   3.831   1.320
 4052SOL     OW12154   0.575   1.139   4.772
 4052SOL    HW112155   0.487   1.162   4.743
 4052SOL    HW212156   0.565   1.053   4.812
 4053SOL     OW12157   0.258   1.517   4.900
 4053SOL    HW112158   0.301   1.494   4.982
 4053SOL    HW212159   0.174   1.555   4.927
 4054SOL     OW12160   3.904   0.466   2.748
 4054SOL    HW112161   3.905   0.378   2.785
 4054SOL    HW212162   3.965   0.516   2.802
 4055SOL     OW12163   1.287   1.702   3.432
 4055SOL    HW112164   1.375   1.680   3.464
 4055SOL    HW212165   1.300   1.780   3.379
 4056SOL     OW12166   4.513   2.635   3.023
 4056SOL    HW112167   4.497   2.727   3.005
 4056SOL    HW212168   4.456   2.615   3.097
 4057SOL     OW12169   1.353   2.993   3.839
 4057SOL    HW112170   1.364   3.010   3.746
 4057SOL    HW212171   1.326   3.077   3.876
 4058SOL     OW12172   2.092   4.955   1.291
 4058SOL    HW112173   2.051   4.871   1.310
 4058SOL    HW212174   2.153   4.970   1.363
 4059SOL     OW12175   3.624   4.734   2.453
 4059SOL    HW112176   3.529   4.740   2.450
 4059SOL    HW212177   3.646   4.666   2.390
 4060SOL     OW12178   0.927   2.108   2.790
 4060SOL    HW112179   0.853   2.127   2.732
 4060SOL    HW212180   0.888   2.061   2.864
 4061SOL     OW12181   5.160   2.734   1.795
 4061SOL    HW112182   5.148   2.781   1.878
 4061SOL    HW212183   5.154   2.641   1.819
 4062SOL     OW12184   2.966   0.994   1.453
 4062SOL    HW112185   2.896   1.002   1.388
 4062SOL    HW212186   3.029   0.934   1.412
 4063SOL     OW12187   0.058   5.128   0.403
 4063SOL    HW112188  -0.011   5.193   0.387
 4063SOL    HW212189   0.134   5.181   0.429
 4064SOL     OW12190   4.332   2.190   2.671
 4064SOL    HW112191   4.313   2.283   2.668
 4064SOL    HW212192   4.384   2.179   2.751
 4065SOL     OW12193   4.258   0.885   4.905
 4065SOL    HW112194   4.247   0.962   4.848
 4065SOL    HW212195   4.263   0.921   4.993
 4066SOL     OW12196   1.150   4.771   1.194
 4066SOL    HW112197   1.226   4.827   1.213
 4066SOL    HW212198   1.174   4.685   1.228
 4067SOL     OW12199   3.086   3.283   4.449
 4067SOL    HW112200   3.133   3.199   4.447
 4067SOL    HW212201   3.155   3.348   4.460
 4068SOL     OW12202   2.865   2.893   2.083
 4068SOL    HW112203   2.802   2.893   2.155
 4068SOL    HW212204   2.812   2.875   2.005
 4069SOL     OW12205   3.300   0.591   2.098
 4069SOL    HW112206   3.370   0.536   2.134
 4069SOL    HW212207   3.251   0.533   2.040
 4070SOL     OW12208   0.875   3.968   5.021
 4070SOL    HW112209   0.882   3.902   4.952
 4070SOL    HW212210   0.806   4.027   4.990
 4071SOL     OW12211   2.391   2.089   2.594
 4071SOL    HW112212   2.305   2.105   2.632
 4071SOL    HW212213   2.393   2.143   2.515
 4072SOL     OW12214   4.215   4.742   3.011
 4072SOL    HW112215   4.193   4.779   2.926
 4072SOL    HW212216   4.220   4.648   2.996
 4073SOL     OW12217   1.982   1.960   2.642
 4073SOL    HW112218   1.926   2.008   2.580
 4073SOL    HW212219   2.062   1.942   2.592
 4074SOL     OW12220   4.651   1.424   0.605
 4074SOL    HW112221   4.670   1.517   0.619
 4074SOL    HW212222   4.598   1.422   0.525
 4075SOL     OW12223   3.904   3.548   2.076
 4075SOL    HW112224   3.942   3.578   2.159
 4075SOL    HW212225   3.976   3.503   2.031
 4076SOL     OW12226   2.515   0.163   2.422
 4076SOL    HW112227   2.479   0.250   2.437
 4076SOL    HW212228   2.489   0.113   2.500
 4077SOL     OW12229   3.151   3.900   2.133
 4077SOL    HW112230   3.100   3.904   2.213
 4077SOL    HW212231   3.117   3.972   2.080
 4078SOL     OW12232   3.849   1.707   3.742
 4078SOL    HW112233   3.821   1.674   3.657
 4078SOL    HW212234   3.935   1.747   3.726
 4079SOL     OW12235   0.029   0.564   3.875
 4079SOL    HW112236  -0.064   0.540   3.871
 4079SOL    HW212237   0.067   0.503   3.939
 4080SOL     OW12238   0.102   3.609   0.426
 4080SOL    HW112239   0.052   3.675   0.377
 4080SOL    HW212240   0.037   3.562   0.477
 4081SOL     OW12241   1.186   0.659   3.310
 4081SOL    HW112242   1.196   0.564   3.300
 4081SOL    HW212243   1.236   0.680   3.389
 4082SOL     OW12244   3.088   3.064   2.391
 4082SOL    HW112245   3.025   3.036   2.457
 4082SOL    HW212246   3.118   3.150   2.421
 4083SOL     OW12247   2.310   3.285   3.676
 4083SOL    HW112248   2.268   3.258   3.594
 4083SOL    HW212249   2.347   3.204   3.711
 4084SOL     OW12250   4.566   1.630   1.351
 4084SOL    HW112251   4.634   1.685   1.390
 4084SOL    HW212252   4.601   1.606   1.265
 4085SOL     OW12253   1.077   3.444   2.477
 4085SOL    HW112254   1.121   3.379   2.422
 4085SOL    HW212255   1.109   3.427   2.566
 4086SOL     OW12256   3.198   1.680   2.896
 4086SOL    HW112257   3.216   1.645   2.983
 4086SOL    HW212258   3.278   1.665   2.847
 4087SOL     OW12259   3.659   0.304   1.201
 4087SOL    HW112260   3.569   0.271   1.204
 4087SOL    HW212261   3.667   0.342   1.113
 4088SOL     OW12262   2.403   3.456   3.890
 4088SOL    HW112263   2.362   3.420   3.811
 4088SOL    HW212264   2.432   3.378   3.938
 4089SOL     OW12265   3.316   1.638   3.388
 4089SOL    HW112266   3.321   1.713   3.448
 4089SOL    HW212267   3.312   1.678   3.301
 4090SOL     OW12268   1.723   0.269   4.046
 4090SOL    HW112269   1.719   0.177   4.019
 4090SOL    HW212270   1.780   0.269   4.124
 4091SOL     OW12271   3.268   1.535   1.909
 4091SOL    HW112272   3.244   1.450   1.871
 4091SOL    HW212273   3.312   1.582   1.838
 4092SOL     OW12274   2.875   3.168   1.528
 4092SOL    HW112275   2.944   3.101   1.528
 4092SOL    HW212276   2.825   3.151   1.607
 4093SOL     OW12277   0.246   2.023   2.493
 4093SOL    HW112278   0.190   1.958   2.449
 4093SOL    HW212279   0.184   2.083   2.535
 4094SOL     OW12280   3.695   4.280   0.396
 4094SOL    HW112281   3.666   4.365   0.361
 4094SOL    HW212282   3.773   4.301   0.447
 4095SOL     OW12283   4.402   1.977   3.062
 4095SOL    HW112284   4.344   1.903   3.043
 4095SOL    HW212285   4.434   1.960   3.151
 4096SOL     OW12286   1.838   1.262   1.735
 4096SOL    HW112287   1.819   1.191   1.674
 4096SOL    HW212288   1.897   1.224   1.800
 4097SOL     OW12289   3.044   0.513   3.575
 4097SOL    HW112290   2.980   0.444   3.555
 4097SOL    HW212291   2.995   0.576   3.628
 4098SOL     OW12292   0.971   4.656   1.530
 4098SOL    HW112293   1.048   4.712   1.518
 4098SOL    HW212294   0.996   4.596   1.600
 4099SOL     OW12295   1.099   1.109   4.914
 4099SOL    HW112296   1.122   1.199   4.891
 4099SOL    HW212297   1.027   1.087   4.854
 4100SOL     OW12298   3.090   1.253   1.146
 4100SOL    HW112299   3.096   1.214   1.233
 4100SOL    HW212300   3.139   1.336   1.154
 4101SOL     OW12301   3.208   1.358   3.971
 4101SOL    HW112302   3.262   1.406   4.034
 4101SOL    HW212303   3.132   1.330   4.022
 4102SOL     OW12304   3.280   4.819   0.472
 4102SOL    HW112305   3.372   4.838   0.457
 4102SOL    HW212306   3.238   4.905   0.480
 4103SOL     OW12307   4.587   1.683   3.366
 4103SOL    HW112308   4.549   1.599   3.341
 4103SOL    HW212309   4.585   1.682   3.462
 4104SOL     OW12310   2.606   4.165   3.813
 4104SOL    HW112311   2.625   4.241   3.758
 4104SOL    HW212312   2.683   4.157   3.870
 4105SOL     OW12313   4.801   2.365   1.345
 4105SOL    HW112314   4.726   2.422   1.360
 4105SOL    HW212315   4.827   2.383   1.255
 4106SOL     OW12316   4.090   2.258   1.100
 4106SOL    HW112317   4.012   2.304   1.132
 4106SOL    HW212318   4.058   2.206   1.026
 4107SOL     OW12319   1.225   0.224   2.978
 4107SOL    HW112320   1.296   0.165   3.002
 4107SOL    HW212321   1.266   0.289   2.921
 4108SOL     OW12322   4.844   2.256   0.904
 4108SOL    HW112323   4.766   2.260   0.849
 4108SOL    HW212324   4.917   2.250   0.842
 4109SOL     OW12325   3.600   1.768   1.479
 4109SOL    HW112326   3.668   1.766   1.411
 4109SOL    HW212327   3.633   1.828   1.545
 4110SOL     OW12328   4.059   2.840   0.272
 4110SOL    HW112329   3.971   2.851   0.307
 4110SOL    HW212330   4.060   2.891   0.191
 4111SOL     OW12331   4.819   2.909   2.474
 4111SOL    HW112332   4.747   2.968   2.496
 4111SOL    HW212333   4.888   2.966   2.440
 4112SOL     OW12334   3.490   2.824   4.649
 4112SOL    HW112335   3.423   2.886   4.678
 4112SOL    HW212336   3.487   2.753   4.714
 4113SOL     OW12337   3.316   2.214   2.814
 4113SOL    HW112338   3.300   2.173   2.900
 4113SOL    HW212339   3.385   2.160   2.775
 4114SOL     OW12340   3.030   0.852   3.549
 4114SOL    HW112341   2.947   0.878   3.590
 4114SOL    HW212342   3.003   0.798   3.474
 4115SOL     OW12343   1.277   2.288   1.234
 4115SOL    HW112344   1.348   2.223   1.242
 4115SOL    HW212345   1.218   2.266   1.306
 4116SOL     OW12346   2.382   1.663   4.999
 4116SOL    HW112347   2.335   1.582   4.980
 4116SOL    HW212348   2.371   1.716   4.920
 4117SOL     OW12349   4.010   4.890   2.255
 4117SOL    HW112350   4.012   4.963   2.193
 4117SOL    HW212351   4.097   4.889   2.294
 4118SOL     OW12352   2.920   4.873   2.549
 4118SOL    HW112353   2.911   4.856   2.643
 4118SOL    HW212354   2.969   4.798   2.516
 4119SOL     OW12355   0.242   0.068   4.878
 4119SOL    HW112356   0.313   0.093   4.936
 4119SOL    HW212357   0.209   0.151   4.843
 4120SOL     OW12358   4.573   2.748   0.249
 4120SOL    HW112359   4.490   2.750   0.296
 4120SOL    HW212360   4.583   2.836   0.213
 4121SOL     OW12361   2.220   1.980   3.635
 4121SOL    HW112362   2.152   1.946   3.692
 4121SOL    HW212363   2.230   2.072   3.661
 4122SOL     OW12364   3.186   3.219   2.877
 4122SOL    HW112365   3.103   3.249   2.914
 4122SOL    HW212366   3.162   3.144   2.822
 4123SOL     OW12367   3.688   5.052   0.298
 4123SOL    HW112368   3.625   5.058   0.226
 4123SOL    HW212369   3.710   5.142   0.319
 4124SOL     OW12370   0.819   2.458   3.902
 4124SOL    HW112371   0.748   2.489   3.846
 4124SOL    HW212372   0.777   2.402   3.967
 4125SOL     OW12373   1.080   2.218   1.065
 4125SOL    HW112374   1.124   2.224   0.980
 4125SOL    HW212375   1.146   2.250   1.128
 4126SOL     OW12376   3.605   2.455   2.676
 4126SOL    HW112377   3.566   2.525   2.728
 4126SOL    HW212378   3.684   2.431   2.725
 4127SOL     OW12379   0.569   1.083   3.707
 4127SOL    HW112380   0.491   1.033   3.684
 4127SOL    HW212381   0.557   1.105   3.800
 4128SOL     OW12382   2.303   2.243   1.055
 4128SOL    HW112383   2.290   2.281   1.142
 4128SOL    HW212384   2.395   2.219   1.052
 4129SOL     OW12385   2.583   4.260   1.776
 4129SOL    HW112386   2.655   4.197   1.785
 4129SOL    HW212387   2.570   4.267   1.681
 4130SOL     OW12388   1.851   4.674   1.276
 4130SOL    HW112389   1.767   4.630   1.289
 4130SOL    HW212390   1.913   4.603   1.259
 4131SOL     OW12391   0.876   3.729   1.020
 4131SOL    HW112392   0.871   3.814   1.064
 4131SOL    HW212393   0.832   3.743   0.936
 4132SOL     OW12394   2.974   3.826   2.377
 4132SOL    HW112395   3.007   3.738   2.362
 4132SOL    HW212396   2.888   3.812   2.417
 4133SOL     OW12397   0.258   3.998   4.812
 4133SOL    HW112398   0.209   4.047   4.745
 4133SOL    HW212399   0.340   4.047   4.822
 4134SOL     OW12400   1.536   3.578   3.331
 4134SOL    HW112401   1.595   3.573   3.406
 4134SOL    HW212402   1.449   3.585   3.370
 4135SOL     OW12403   4.999   2.882   3.738
 4135SOL    HW112404   4.979   2.793   3.710
 4135SOL    HW212405   5.088   2.898   3.706
 4136SOL     OW12406   2.647   4.823   3.892
 4136SOL    HW112407   2.741   4.829   3.907
 4136SOL    HW212408   2.638   4.784   3.806
 4137SOL     OW12409   4.533   0.153   1.638
 4137SOL    HW112410   4.541   0.225   1.575
 4137SOL    HW212411   4.482   0.087   1.591
 4138SOL     OW12412   0.463   4.257   3.100
 4138SOL    HW112413   0.429   4.185   3.047
 4138SOL    HW212414   0.469   4.331   3.038
 4139SOL     OW12415   4.542   4.861   2.042
 4139SOL    HW112416   4.451   4.832   2.039
 4139SOL    HW212417   4.538   4.954   2.020
 4140SOL     OW12418   1.425   1.497   0.214
 4140SOL    HW112419   1.383   1.486   0.129
 4140SOL    HW212420   1.461   1.411   0.234
 4141SOL     OW12421   1.636   1.976   0.551
 4141SOL    HW112422   1.699   1.974   0.624
 4141SOL    HW212423   1.684   2.017   0.479
 4142SOL     OW12424   4.765   5.150   2.823
 4142SOL    HW112425   4.773   5.116   2.912
 4142SOL    HW212426   4.790   5.242   2.830
 4143SOL     OW12427   2.571   4.366   3.371
 4143SOL    HW112428   2.557   4.453   3.334
 4143SOL    HW212429   2.492   4.318   3.349
 4144SOL     OW12430   1.333   1.237   4.333
 4144SOL    HW112431   1.275   1.303   4.295
 4144SOL    HW212432   1.368   1.278   4.412
 4145SOL     OW12433   4.409   3.177   2.111
 4145SOL    HW112434   4.375   3.263   2.087
 4145SOL    HW212435   4.449   3.144   2.030
 4146SOL     OW12436   2.395   1.104   3.658
 4146SOL    HW112437   2.480   1.148   3.666
 4146SOL    HW212438   2.341   1.165   3.609
 4147SOL     OW12439   0.483   4.551   1.733
 4147SOL    HW112440   0.506   4.626   1.678
 4147SOL    HW212441   0.538   4.479   1.700
 4148SOL     OW12442   3.217   3.876   3.078
 4148SOL    HW112443   3.295   3.842   3.033
 4148SOL    HW212444   3.149   3.877   3.010
 4149SOL     OW12445   0.693   4.511   3.716
 4149SOL    HW112446   0.610   4.466   3.702
 4149SOL    HW212447   0.669   4.592   3.762
 4150SOL     OW12448   1.825   2.403   3.044
 4150SOL    HW112449   1.868   2.420   2.960
 4150SOL    HW212450   1.743   2.360   3.021
 4151SOL     OW12451   1.577   2.062   3.279
 4151SOL    HW112452   1.575   2.067   3.375
 4151SOL    HW212453   1.612   2.147   3.252
 4152SOL     OW12454   0.168   2.776   4.684
 4152SOL    HW112455   0.213   2.704   4.728
 4152SOL    HW212456   0.214   2.787   4.601
 4153SOL     OW12457   3.701   0.267   4.022
 4153SOL    HW112458   3.748   0.186   4.004
 4153SOL    HW212459   3.718   0.323   3.946
 4154SOL     OW12460   2.988   1.485   2.881
 4154SOL    HW112461   2.913   1.535   2.849
 4154SOL    HW212462   3.063   1.545   2.873
 4155SOL     OW12463   1.016   4.844   0.379
 4155SOL    HW112464   1.053   4.757   0.372
 4155SOL    HW212465   1.077   4.891   0.437
 4156SOL     OW12466   3.328   2.963   1.394
 4156SOL    HW112467   3.264   2.973   1.325
 4156SOL    HW212468   3.300   3.024   1.463
 4157SOL     OW12469   1.217   0.240   1.011
 4157SOL    HW112470   1.194   0.280   1.095
 4157SOL    HW212471   1.174   0.154   1.012
 4158SOL     OW12472   3.641   4.272   2.091
 4158SOL    HW112473   3.570   4.304   2.036
 4158SOL    HW212474   3.611   4.286   2.181
 4159SOL     OW12475   3.673   2.710   1.553
 4159SOL    HW112476   3.599   2.675   1.604
 4159SOL    HW212477   3.678   2.802   1.579
 4160SOL     OW12478   0.399   0.305   3.711
 4160SOL    HW112479   0.396   0.293   3.806
 4160SOL    HW212480   0.384   0.398   3.698
 4161SOL     OW12481   0.089   3.437   4.209
 4161SOL    HW112482   0.016   3.377   4.192
 4161SOL    HW212483   0.164   3.395   4.169
 4162SOL     OW12484   2.961   3.776   3.754
 4162SOL    HW112485   2.992   3.690   3.781
 4162SOL    HW212486   3.015   3.798   3.678
 4163SOL     OW12487   3.246   3.465   2.475
 4163SOL    HW112488   3.287   3.417   2.548
 4163SOL    HW212489   3.309   3.456   2.403
 4164SOL     OW12490   1.128   4.651   3.241
 4164SOL    HW112491   1.138   4.662   3.336
 4164SOL    HW212492   1.139   4.557   3.227
 4165SOL     OW12493   3.230   3.046   4.435
 4165SOL    HW112494   3.255   2.989   4.363
 4165SOL    HW212495   3.270   3.007   4.512
 4166SOL     OW12496   1.246   1.574   1.340
 4166SOL    HW112497   1.170   1.557   1.396
 4166SOL    HW212498   1.289   1.489   1.332
 4167SOL     OW12499   2.587   1.079   1.015
 4167SOL    HW112500   2.615   1.012   0.952
 4167SOL    HW212501   2.491   1.074   1.013
 4168SOL     OW12502   2.629   1.223   4.745
 4168SOL    HW112503   2.685   1.198   4.672
 4168SOL    HW212504   2.617   1.143   4.796
 4169SOL     OW12505   1.829   3.810   0.558
 4169SOL    HW112506   1.880   3.758   0.620
 4169SOL    HW212507   1.892   3.840   0.492
 4170SOL     OW12508   2.729   2.039   2.419
 4170SOL    HW112509   2.642   2.078   2.425
 4170SOL    HW212510   2.716   1.947   2.442
 4171SOL     OW12511   1.742   2.597   1.870
 4171SOL    HW112512   1.743   2.600   1.774
 4171SOL    HW212513   1.784   2.679   1.897
 4172SOL     OW12514   1.022   3.745   1.895
 4172SOL    HW112515   1.113   3.720   1.910
 4172SOL    HW212516   1.003   3.715   1.806
 4173SOL     OW12517   4.360   3.486   0.288
 4173SOL    HW112518   4.415   3.554   0.326
 4173SOL    HW212519   4.277   3.531   0.268
 4174SOL     OW12520   5.175   4.900   1.134
 4174SOL    HW112521   5.135   4.816   1.157
 4174SOL    HW212522   5.137   4.922   1.049
 4175SOL     OW12523   4.032   3.706   3.822
 4175SOL    HW112524   3.958   3.748   3.868
 4175SOL    HW212525   3.993   3.669   3.743
 4176SOL     OW12526   2.499   3.812   4.132
 4176SOL    HW112527   2.463   3.780   4.050
 4176SOL    HW212528   2.535   3.734   4.175
 4177SOL     OW12529   2.719   2.865   3.215
 4177SOL    HW112530   2.655   2.923   3.174
 4177SOL    HW212531   2.700   2.871   3.309
 4178SOL     OW12532   1.885   0.679   1.395
 4178SOL    HW112533   1.849   0.754   1.349
 4178SOL    HW212534   1.918   0.714   1.477
 4179SOL     OW12535   4.570   0.793   3.721
 4179SOL    HW112536   4.601   0.727   3.783
 4179SOL    HW212537   4.485   0.761   3.692
 4180SOL     OW12538   4.116   0.343   4.496
 4180SOL    HW112539   4.156   0.309   4.415
 4180SOL    HW212540   4.037   0.389   4.466
 4181SOL     OW12541   0.764   2.439   2.588
 4181SOL    HW112542   0.800   2.383   2.520
 4181SOL    HW212543   0.751   2.523   2.545
 4182SOL     OW12544   4.508   3.186   0.680
 4182SOL    HW112545   4.598   3.160   0.663
 4182SOL    HW212546   4.480   3.229   0.600
 4183SOL     OW12547   1.050   4.345   2.822
 4183SOL    HW112548   1.117   4.279   2.803
 4183SOL    HW212549   1.066   4.370   2.913
 4184SOL     OW12550   1.072   0.953   1.228
 4184SOL    HW112551   1.132   1.024   1.250
 4184SOL    HW212552   1.037   0.924   1.312
 4185SOL     OW12553   0.439   5.046   3.437
 4185SOL    HW112554   0.534   5.036   3.433
 4185SOL    HW212555   0.423   5.098   3.515
 4186SOL     OW12556   0.487   1.294   0.131
 4186SOL    HW112557   0.446   1.322   0.213
 4186SOL    HW212558   0.573   1.336   0.132
 4187SOL     OW12559   0.419   0.677   0.375
 4187SOL    HW112560   0.368   0.598   0.395
 4187SOL    HW212561   0.397   0.738   0.445
 4188SOL     OW12562   1.384   5.178   0.436
 4188SOL    HW112563   1.409   5.262   0.474
 4188SOL    HW212564   1.467   5.134   0.418
 4189SOL     OW12565   2.576   2.987   3.755
 4189SOL    HW112566   2.622   3.070   3.741
 4189SOL    HW212567   2.488   3.013   3.781
 4190SOL     OW12568   1.258   2.772   0.505
 4190SOL    HW112569   1.347   2.756   0.474
 4190SOL    HW212570   1.244   2.866   0.490
 4191SOL     OW12571   2.804   4.576   2.913
 4191SOL    HW112572   2.713   4.600   2.896
 4191SOL    HW212573   2.798   4.506   2.979
 4192SOL     OW12574   4.240   3.183   4.594
 4192SOL    HW112575   4.160   3.134   4.616
 4192SOL    HW212576   4.234   3.198   4.500
 4193SOL     OW12577   2.292   1.376   0.958
 4193SOL    HW112578   2.361   1.383   1.024
 4193SOL    HW212579   2.338   1.362   0.876
 4194SOL     OW12580   4.401   2.564   1.769
 4194SOL    HW112581   4.317   2.608   1.757
 4194SOL    HW212582   4.385   2.496   1.834
 4195SOL     OW12583   3.792   2.231   0.154
 4195SOL    HW112584   3.717   2.176   0.132
 4195SOL    HW212585   3.864   2.169   0.168
 4196SOL     OW12586   1.510   4.025   1.232
 4196SOL    HW112587   1.517   4.118   1.211
 4196SOL    HW212588   1.453   3.989   1.164
 4197SOL     OW12589   4.090   0.958   1.957
 4197SOL    HW112590   4.092   0.875   2.004
 4197SOL    HW212591   4.001   0.990   1.967
 4198SOL     OW12592   2.437   2.459   0.518
 4198SOL    HW112593   2.475   2.521   0.581
 4198SOL    HW212594   2.502   2.389   0.512
 4199SOL     OW12595   1.076   2.443   4.481
 4199SOL    HW112596   1.037   2.458   4.395
 4199SOL    HW212597   1.128   2.521   4.499
 4200SOL     OW12598   1.587   5.155   0.144
 4200SOL    HW112599   1.504   5.181   0.103
 4200SOL    HW212600   1.568   5.155   0.238
 4201SOL     OW12601   1.550   2.204   4.896
 4201SOL    HW112602   1.519   2.269   4.959
 4201SOL    HW212603   1.587   2.256   4.825
 4202SOL     OW12604   2.319   4.413   1.253
 4202SOL    HW112605   2.344   4.461   1.174
 4202SOL    HW212606   2.238   4.455   1.282
 4203SOL     OW12607   4.046   2.409   1.766
 4203SOL    HW112608   4.037   2.464   1.844
 4203SOL    HW212609   4.001   2.328   1.789
 4204SOL     OW12610   3.397   4.044   0.865
 4204SOL    HW112611   3.455   3.978   0.827
 4204SOL    HW212612   3.409   4.121   0.810
 4205SOL     OW12613   4.629   2.103   1.389
 4205SOL    HW112614   4.658   2.195   1.387
 4205SOL    HW212615   4.703   2.056   1.428
 4206SOL     OW12616   3.574   1.549   1.659
 4206SOL    HW112617   3.603   1.479   1.601
 4206SOL    HW212618   3.605   1.630   1.617
 4207SOL     OW12619   3.933   3.098   2.848
 4207SOL    HW112620   3.883   3.090   2.929
 4207SOL    HW212621   3.955   3.191   2.842
 4208SOL     OW12622   0.495   4.655   3.023
 4208SOL    HW112623   0.564   4.690   3.079
 4208SOL    HW212624   0.414   4.681   3.066
 4209SOL     OW12625   3.399   4.427   1.108
 4209SOL    HW112626   3.471   4.470   1.155
 4209SOL    HW212627   3.362   4.497   1.053
 4210SOL     OW12628   1.288   0.292   3.724
 4210SOL    HW112629   1.358   0.329   3.670
 4210SOL    HW212630   1.253   0.220   3.672
 4211SOL     OW12631   2.874   4.981   4.338
 4211SOL    HW112632   2.882   5.062   4.387
 4211SOL    HW212633   2.861   5.009   4.247
 4212SOL     OW12634   1.545   3.094   3.267
 4212SOL    HW112635   1.455   3.124   3.251
 4212SOL    HW212636   1.536   2.999   3.277
 4213SOL     OW12637   2.766   2.668   3.044
 4213SOL    HW112638   2.751   2.723   3.121
 4213SOL    HW212639   2.818   2.723   2.986
 4214SOL     OW12640   0.446   2.956   3.218
 4214SOL    HW112641   0.369   2.922   3.173
 4214SOL    HW212642   0.459   3.044   3.181
 4215SOL     OW12643   4.830   3.235   0.681
 4215SOL    HW112644   4.776   3.308   0.651
 4215SOL    HW212645   4.890   3.219   0.609
 4216SOL     OW12646   3.453   1.743   2.712
 4216SOL    HW112647   3.546   1.761   2.725
 4216SOL    HW212648   3.450   1.667   2.655
 4217SOL     OW12649   3.777   0.222   0.271
 4217SOL    HW112650   3.812   0.305   0.303
 4217SOL    HW212651   3.711   0.197   0.336
 4218SOL     OW12652   2.559   4.498   2.501
 4218SOL    HW112653   2.619   4.439   2.455
 4218SOL    HW212654   2.579   4.585   2.467
 4219SOL     OW12655   2.213   0.916   4.919
 4219SOL    HW112656   2.122   0.937   4.943
 4219SOL    HW212657   2.208   0.829   4.879
 4220SOL     OW12658   5.226   1.800   3.270
 4220SOL    HW112659   5.219   1.875   3.329
 4220SOL    HW212660   5.136   1.781   3.244
 4221SOL     OW12661   2.449   0.370   2.609
 4221SOL    HW112662   2.358   0.340   2.600
 4221SOL    HW212663   2.441   0.466   2.615
 4222SOL     OW12664   5.150   1.178   1.149
 4222SOL    HW112665   5.215   1.231   1.195
 4222SOL    HW212666   5.143   1.217   1.063
 4223SOL     OW12667   4.212   4.910   0.378
 4223SOL    HW112668   4.271   4.835   0.388
 4223SOL    HW212669   4.163   4.913   0.460
 4224SOL     OW12670   5.015   0.580   0.284
 4224SOL    HW112671   5.007   0.666   0.244
 4224SOL    HW212672   5.109   0.566   0.293
 4225SOL     OW12673   2.726   4.807   4.490
 4225SOL    HW112674   2.772   4.868   4.431
 4225SOL    HW212675   2.646   4.785   4.443
 4226SOL     OW12676   5.145   3.241   4.049
 4226SOL    HW112677   5.184   3.160   4.083
 4226SOL    HW212678   5.106   3.216   3.965
 4227SOL     OW12679   3.760   2.243   4.183
 4227SOL    HW112680   3.706   2.322   4.196
 4227SOL    HW212681   3.840   2.275   4.142
 4228SOL     OW12682   1.666   2.508   3.478
 4228SOL    HW112683   1.728   2.547   3.540
 4228SOL    HW212684   1.623   2.583   3.437
 4229SOL     OW12685   0.641   2.582   0.811
 4229SOL    HW112686   0.681   2.512   0.760
 4229SOL    HW212687   0.590   2.536   0.878
 4230SOL     OW12688   1.190   2.055   2.819
 4230SOL    HW112689   1.190   2.009   2.735
 4230SOL    HW212690   1.099   2.081   2.832
 4231SOL     OW12691   3.284   4.722   4.765
 4231SOL    HW112692   3.210   4.663   4.782
 4231SOL    HW212693   3.249   4.810   4.781
 4232SOL     OW12694   3.425   4.416   1.960
 4232SOL    HW112695   3.341   4.425   2.004
 4232SOL    HW212696   3.418   4.334   1.911
 4233SOL     OW12697   4.900   3.607   1.515
 4233SOL    HW112698   4.837   3.669   1.551
 4233SOL    HW212699   4.861   3.521   1.530
 4234SOL     OW12700   2.670   3.689   2.913
 4234SOL    HW112701   2.590   3.740   2.923
 4234SOL    HW212702   2.741   3.752   2.925
 4235SOL     OW12703   0.065   2.992   1.465
 4235SOL    HW112704   0.024   3.075   1.489
 4235SOL    HW212705   0.048   2.984   1.371
 4236SOL     OW12706   4.801   4.813   1.193
 4236SOL    HW112707   4.878   4.774   1.151
 4236SOL    HW212708   4.822   4.813   1.287
 4237SOL     OW12709   0.440   2.316   1.237
 4237SOL    HW112710   0.529   2.281   1.229
 4237SOL    HW212711   0.383   2.241   1.222
 4238SOL     OW12712   1.503   4.994   4.741
 4238SOL    HW112713   1.546   5.073   4.708
 4238SOL    HW212714   1.512   4.931   4.669
 4239SOL     OW12715   2.905   4.417   3.579
 4239SOL    HW112716   2.930   4.477   3.649
 4239SOL    HW212717   2.944   4.333   3.603
 4240SOL     OW12718   3.163   1.368   2.513
 4240SOL    HW112719   3.249   1.327   2.521
 4240SOL    HW212720   3.166   1.414   2.429
 4241SOL     OW12721   1.428   2.154   2.697
 4241SOL    HW112722   1.425   2.250   2.703
 4241SOL    HW212723   1.349   2.124   2.742
 4242SOL     OW12724   2.813   4.123   3.497
 4242SOL    HW112725   2.779   4.036   3.521
 4242SOL    HW212726   2.759   4.149   3.422
 4243SOL     OW12727   1.179   2.687   4.565
 4243SOL    HW112728   1.154   2.770   4.523
 4243SOL    HW212729   1.135   2.690   4.650
 4244SOL     OW12730   3.427   2.543   0.710
 4244SOL    HW112731   3.343   2.529   0.666
 4244SOL    HW212732   3.420   2.495   0.792
 4245SOL     OW12733   5.025   3.352   2.862
 4245SOL    HW112734   5.099   3.315   2.910
 4245SOL    HW212735   4.976   3.401   2.928
 4246SOL     OW12736   2.290   4.676   3.606
 4246SOL    HW112737   2.294   4.597   3.553
 4246SOL    HW212738   2.379   4.711   3.605
 4247SOL     OW12739   2.557   4.753   3.099
 4247SOL    HW112740   2.550   4.716   3.011
 4247SOL    HW212741   2.590   4.842   3.086
 4248SOL     OW12742   4.443   2.333   1.959
 4248SOL    HW112743   4.520   2.331   2.015
 4248SOL    HW212744   4.394   2.255   1.984
 4249SOL     OW12745   2.741   3.547   2.472
 4249SOL    HW112746   2.825   3.523   2.435
 4249SOL    HW212747   2.691   3.465   2.472
 4250SOL     OW12748   2.734   2.434   4.014
 4250SOL    HW112749   2.731   2.492   3.938
 4250SOL    HW212750   2.826   2.411   4.023
 4251SOL     OW12751   1.554   3.551   4.671
 4251SOL    HW112752   1.552   3.478   4.733
 4251SOL    HW212753   1.533   3.628   4.723
 4252SOL     OW12754   1.751   0.789   3.160
 4252SOL    HW112755   1.820   0.722   3.157
 4252SOL    HW212756   1.798   0.872   3.160
 4253SOL     OW12757   3.395   0.557   2.810
 4253SOL    HW112758   3.476   0.608   2.816
 4253SOL    HW212759   3.423   0.466   2.813
 4254SOL     OW12760   1.629   3.321   3.809
 4254SOL    HW112761   1.551   3.334   3.755
 4254SOL    HW212762   1.601   3.263   3.879
 4255SOL     OW12763   4.985   4.548   4.095
 4255SOL    HW112764   4.894   4.536   4.121
 4255SOL    HW212765   5.028   4.580   4.174
 4256SOL     OW12766   3.743   3.725   1.270
 4256SOL    HW112767   3.806   3.773   1.216
 4256SOL    HW212768   3.796   3.661   1.317
 4257SOL     OW12769   2.315   0.481   4.480
 4257SOL    HW112770   2.398   0.453   4.442
 4257SOL    HW212771   2.300   0.568   4.443
 4258SOL     OW12772   4.977   5.162   0.249
 4258SOL    HW112773   4.968   5.172   0.154
 4258SOL    HW212774   4.888   5.141   0.279
 4259SOL     OW12775   3.302   2.998   2.035
 4259SOL    HW112776   3.343   2.921   2.074
 4259SOL    HW212777   3.287   3.058   2.108
 4260SOL     OW12778   1.717   2.310   1.670
 4260SOL    HW112779   1.701   2.397   1.633
 4260SOL    HW212780   1.702   2.320   1.764
 4261SOL     OW12781   1.934   4.791   0.548
 4261SOL    HW112782   1.901   4.781   0.458
 4261SOL    HW212783   1.862   4.832   0.596
 4262SOL     OW12784   3.189   4.038   4.792
 4262SOL    HW112785   3.221   3.955   4.756
 4262SOL    HW212786   3.112   4.059   4.739
 4263SOL     OW12787   1.032   4.548   0.579
 4263SOL    HW112788   1.002   4.480   0.639
 4263SOL    HW212789   1.083   4.501   0.512
 4264SOL     OW12790   4.597   3.716   2.996
 4264SOL    HW112791   4.680   3.759   2.973
 4264SOL    HW212792   4.588   3.647   2.930
 4265SOL     OW12793   4.594   2.618   4.432
 4265SOL    HW112794   4.563   2.665   4.509
 4265SOL    HW212795   4.648   2.547   4.466
 4266SOL     OW12796   2.619   2.016   2.727
 4266SOL    HW112797   2.632   1.923   2.709
 4266SOL    HW212798   2.545   2.042   2.673
 4267SOL     OW12799   0.298   1.711   3.160
 4267SOL    HW112800   0.207   1.699   3.188
 4267SOL    HW212801   0.292   1.728   3.066
 4268SOL     OW12802   1.356   0.838   1.528
 4268SOL    HW112803   1.439   0.840   1.575
 4268SOL    HW212804   1.293   0.807   1.593
 4269SOL     OW12805   0.191   3.129   3.727
 4269SOL    HW112806   0.203   3.109   3.820
 4269SOL    HW212807   0.275   3.107   3.687
 4270SOL     OW12808   0.461   0.639   2.043
 4270SOL    HW112809   0.477   0.674   1.956
 4270SOL    HW212810   0.446   0.545   2.029
 4271SOL     OW12811   4.840   0.645   2.254
 4271SOL    HW112812   4.799   0.562   2.279
 4271SOL    HW212813   4.824   0.653   2.160
 4272SOL     OW12814   4.960   0.562   3.959
 4272SOL    HW112815   4.996   0.635   4.010
 4272SOL    HW212816   4.943   0.494   4.024
 4273SOL     OW12817   3.171   2.087   3.465
 4273SOL    HW112818   3.125   2.019   3.514
 4273SOL    HW212819   3.262   2.082   3.495
 4274SOL     OW12820   0.585   3.969   2.631
 4274SOL    HW112821   0.496   4.002   2.643
 4274SOL    HW212822   0.627   3.981   2.716
 4275SOL     OW12823   1.068   0.859   0.812
 4275SOL    HW112824   1.088   0.781   0.863
 4275SOL    HW212825   1.006   0.829   0.746
 4276SOL     OW12826   0.640   2.538   2.814
 4276SOL    HW112827   0.688   2.495   2.743
 4276SOL    HW212828   0.690   2.517   2.893
 4277SOL     OW12829   1.067   3.304   4.875
 4277SOL    HW112830   1.110   3.248   4.811
 4277SOL    HW212831   1.120   3.294   4.955
 4278SOL     OW12832   4.068   4.634   4.988
 4278SOL    HW112833   4.002   4.702   5.003
 4278SOL    HW212834   4.080   4.633   4.893
 4279SOL     OW12835   1.446   2.495   1.108
 4279SOL    HW112836   1.398   2.430   1.161
 4279SOL    HW212837   1.378   2.536   1.055
 4280SOL     OW12838   0.679   1.023   2.213
 4280SOL    HW112839   0.604   0.966   2.227
 4280SOL    HW212840   0.740   0.970   2.161
 4281SOL     OW12841   4.604   1.625   3.659
 4281SOL    HW112842   4.632   1.686   3.726
 4281SOL    HW212843   4.645   1.542   3.683
 4282SOL     OW12844   3.240   1.305   1.784
 4282SOL    HW112845   3.286   1.306   1.700
 4282SOL    HW212846   3.214   1.214   1.797
 4283SOL     OW12847   4.696   5.120   0.294
 4283SOL    HW112848   4.625   5.169   0.254
 4283SOL    HW212849   4.666   5.029   0.294
 4284SOL     OW12850   2.115   0.291   4.438
 4284SOL    HW112851   2.180   0.225   4.462
 4284SOL    HW212852   2.165   0.360   4.395
 4285SOL     OW12853   4.017   4.985   1.844
 4285SOL    HW112854   4.075   5.002   1.770
 4285SOL    HW212855   3.930   5.006   1.811
 4286SOL     OW12856   4.586   2.777   1.599
 4286SOL    HW112857   4.553   2.785   1.689
 4286SOL    HW212858   4.681   2.768   1.610
 4287SOL     OW12859   1.776   0.686   1.992
 4287SOL    HW112860   1.745   0.772   1.964
 4287SOL    HW212861   1.697   0.634   2.003
 4288SOL     OW12862   1.642   1.336   2.021
 4288SOL    HW112863   1.586   1.384   2.082
 4288SOL    HW212864   1.584   1.313   1.949
 4289SOL     OW12865   3.941   4.414   1.470
 4289SOL    HW112866   3.896   4.477   1.527
 4289SOL    HW212867   3.885   4.336   1.470
 4290SOL     OW12868   1.230   2.910   1.299
 4290SOL    HW112869   1.233   2.838   1.362
 4290SOL    HW212870   1.146   2.953   1.315
 4291SOL     OW12871   1.563   4.457   4.212
 4291SOL    HW112872   1.652   4.425   4.200
 4291SOL    HW212873   1.562   4.493   4.301
 4292SOL     OW12874   4.421   1.881   1.352
 4292SOL    HW112875   4.442   1.795   1.389
 4292SOL    HW212876   4.476   1.942   1.401
 4293SOL     OW12877   3.198   4.424   2.107
 4293SOL    HW112878   3.182   4.440   2.200
 4293SOL    HW212879   3.129   4.472   2.062
 4294SOL     OW12880   1.182   1.962   1.592
 4294SOL    HW112881   1.164   2.004   1.676
 4294SOL    HW212882   1.109   1.902   1.578
 4295SOL     OW12883   4.501   3.947   2.466
 4295SOL    HW112884   4.436   3.886   2.432
 4295SOL    HW212885   4.571   3.947   2.401
 4296SOL     OW12886   1.133   0.610   0.300
 4296SOL    HW112887   1.153   0.588   0.392
 4296SOL    HW212888   1.214   0.592   0.253
 4297SOL     OW12889   4.671   4.283   1.937
 4297SOL    HW112890   4.671   4.295   1.842
 4297SOL    HW212891   4.578   4.287   1.961
 4298SOL     OW12892   1.080   3.373   3.746
 4298SOL    HW112893   1.152   3.428   3.778
 4298SOL    HW212894   1.045   3.421   3.671
 4299SOL     OW12895   0.678   0.637   3.539
 4299SOL    HW112896   0.749   0.612   3.479
 4299SOL    HW212897   0.718   0.631   3.626
 4300SOL     OW12898   4.167   3.561   0.793
 4300SOL    HW112899   4.093   3.566   0.733
 4300SOL    HW212900   4.129   3.567   0.880
 4301SOL     OW12901   0.813   4.326   0.652
 4301SOL    HW112902   0.732   4.372   0.674
 4301SOL    HW212903   0.842   4.288   0.736
 4302SOL     OW12904   4.218   2.555   4.371
 4302SOL    HW112905   4.127   2.575   4.392
 4302SOL    HW212906   4.261   2.545   4.456
 4303SOL     OW12907   5.156   2.780   2.536
 4303SOL    HW112908   5.087   2.771   2.602
 4303SOL    HW212909   5.209   2.853   2.568
 4304SOL     OW12910   0.774   0.951   3.277
 4304SOL    HW112911   0.840   0.883   3.259
 4304SOL    HW212912   0.788   1.016   3.208
 4305SOL     OW12913   3.358   1.239   2.245
 4305SOL    HW112914   3.284   1.292   2.213
 4305SOL    HW212915   3.432   1.267   2.191
 4306SOL     OW12916   3.414   0.610   1.643
 4306SOL    HW112917   3.503   0.631   1.613
 4306SOL    HW212918   3.392   0.681   1.704
 4307SOL     OW12919   0.718   1.282   4.597
 4307SOL    HW112920   0.751   1.367   4.624
 4307SOL    HW212921   0.649   1.261   4.659
 4308SOL     OW12922   4.229   2.476   2.426
 4308SOL    HW112923   4.242   2.503   2.335
 4308SOL    HW212924   4.318   2.465   2.460
 4309SOL     OW12925   5.013   4.311   1.443
 4309SOL    HW112926   5.102   4.342   1.425
 4309SOL    HW212927   5.000   4.239   1.381
 4310SOL     OW12928   2.563   2.572   4.343
 4310SOL    HW112929   2.473   2.558   4.373
 4310SOL    HW212930   2.586   2.491   4.298
 4311SOL     OW12931   1.174   3.839   0.713
 4311SOL    HW112932   1.267   3.857   0.725
 4311SOL    HW212933   1.144   3.809   0.798
 4312SOL     OW12934   3.290   1.331   0.492
 4312SOL    HW112935   3.248   1.390   0.429
 4312SOL    HW212936   3.380   1.365   0.500
 4313SOL     OW12937   1.599   2.653   2.492
 4313SOL    HW112938   1.548   2.715   2.544
 4313SOL    HW212939   1.543   2.631   2.418
 4314SOL     OW12940   0.555   2.633   1.213
 4314SOL    HW112941   0.515   2.546   1.215
 4314SOL    HW212942   0.590   2.645   1.301
 4315SOL     OW12943   5.126   1.092   4.208
 4315SOL    HW112944   5.094   1.023   4.150
 4315SOL    HW212945   5.198   1.051   4.257
 4316SOL     OW12946   4.094   3.588   1.058
 4316SOL    HW112947   4.168   3.557   1.112
 4316SOL    HW212948   4.061   3.664   1.105
 4317SOL     OW12949   1.229   1.614   1.907
 4317SOL    HW112950   1.210   1.700   1.944
 4317SOL    HW212951   1.277   1.568   1.976
 4318SOL     OW12952   1.104   3.862   3.382
 4318SOL    HW112953   1.146   3.929   3.435
 4318SOL    HW212954   1.146   3.868   3.297
 4319SOL     OW12955   1.764   1.644   3.097
 4319SOL    HW112956   1.702   1.601   3.156
 4319SOL    HW212957   1.710   1.685   3.031
 4320SOL     OW12958   1.330   2.769   3.561
 4320SOL    HW112959   1.245   2.746   3.524
 4320SOL    HW212960   1.325   2.864   3.574
 4321SOL     OW12961   3.677   3.853   3.138
 4321SOL    HW112962   3.747   3.790   3.156
 4321SOL    HW212963   3.602   3.822   3.188
 4322SOL     OW12964   4.580   0.328   4.944
 4322SOL    HW112965   4.568   0.384   4.867
 4322SOL    HW212966   4.674   0.309   4.946
 4323SOL     OW12967   1.228   5.176   4.539
 4323SOL    HW112968   1.135   5.166   4.517
 4323SOL    HW212969   1.253   5.093   4.578
 4324SOL     OW12970   1.247   2.024   0.100
 4324SOL    HW112971   1.311   2.003   0.032
 4324SOL    HW212972   1.242   1.944   0.153
 4325SOL     OW12973   4.882   3.802   5.068
 4325SOL    HW112974   4.799   3.849   5.056
 4325SOL    HW212975   4.923   3.803   4.981
 4326SOL     OW12976   2.764   1.932   4.750
 4326SOL    HW112977   2.694   1.873   4.777
 4326SOL    HW212978   2.752   1.941   4.655
 4327SOL     OW12979   0.500   4.461   1.981
 4327SOL    HW112980   0.423   4.407   2.000
 4327SOL    HW212981   0.479   4.505   1.899
 4328SOL     OW12982   1.950  -0.005   1.170
 4328SOL    HW112983   1.991   0.081   1.162
 4328SOL    HW212984   2.021  -0.064   1.195
 4329SOL     OW12985   0.877   1.529   2.487
 4329SOL    HW112986   0.908   1.578   2.563
 4329SOL    HW212987   0.782   1.540   2.488
 4330SOL     OW12988   1.586   0.748   4.110
 4330SOL    HW112989   1.554   0.666   4.072
 4330SOL    HW212990   1.532   0.815   4.068
 4331SOL     OW12991   2.791   4.364   2.330
 4331SOL    HW112992   2.853   4.291   2.339
 4331SOL    HW212993   2.755   4.354   2.242
 4332SOL     OW12994   0.754   1.049   0.470
 4332SOL    HW112995   0.820   1.111   0.503
 4332SOL    HW212996   0.676   1.103   0.457
 4333SOL     OW12997   3.362   2.443   0.978
 4333SOL    HW112998   3.424   2.511   1.004
 4333SOL    HW212999   3.358   2.384   1.054
 4334SOL     OW13000   2.051   4.634   2.401
 4334SOL    HW113001   1.980   4.574   2.421
 4334SOL    HW213002   2.009   4.718   2.385
 4335SOL     OW13003   4.506   4.142   4.478
 4335SOL    HW113004   4.478   4.205   4.544
 4335SOL    HW213005   4.425   4.117   4.433
 4336SOL     OW13006   4.940   1.420   3.103
 4336SOL    HW113007   5.026   1.454   3.126
 4336SOL    HW213008   4.925   1.450   3.014
 4337SOL     OW13009   0.223   4.275   3.260
 4337SOL    HW113010   0.172   4.350   3.230
 4337SOL    HW213011   0.299   4.272   3.202
 4338SOL     OW13012   4.713   4.710   0.301
 4338SOL    HW113013   4.642   4.759   0.259
 4338SOL    HW213014   4.785   4.773   0.307
 4339SOL     OW13015   1.880   3.981   2.748
 4339SOL    HW113016   1.866   4.030   2.666
 4339SOL    HW213017   1.794   3.944   2.769
 4340SOL     OW13018   2.750   0.113   2.309
 4340SOL    HW113019   2.760   0.194   2.258
 4340SOL    HW213020   2.677   0.131   2.368
 4341SOL     OW13021   4.054   0.567   4.704
 4341SOL    HW113022   3.993   0.640   4.714
 4341SOL    HW213023   3.999   0.491   4.689
 4342SOL     OW13024   2.480   3.007   2.444
 4342SOL    HW113025   2.392   3.032   2.471
 4342SOL    HW213026   2.494   2.921   2.484
 4343SOL     OW13027   4.205   3.194   4.201
 4343SOL    HW113028   4.255   3.205   4.120
 4343SOL    HW213029   4.203   3.099   4.214
 4344SOL     OW13030   4.992   1.748   2.442
 4344SOL    HW113031   4.935   1.820   2.417
 4344SOL    HW213032   4.961   1.674   2.388
 4345SOL     OW13033   1.852   2.195   1.236
 4345SOL    HW113034   1.827   2.161   1.151
 4345SOL    HW213035   1.943   2.170   1.247
 4346SOL     OW13036   2.241   0.598   1.244
 4346SOL    HW113037   2.271   0.648   1.167
 4346SOL    HW213038   2.285   0.513   1.236
 4347SOL     OW13039   5.020   1.629   2.729
 4347SOL    HW113040   5.018   1.656   2.637
 4347SOL    HW213041   4.935   1.654   2.763
 4348SOL     OW13042   1.094   4.938   0.118
 4348SOL    HW113043   1.064   4.886   0.193
 4348SOL    HW213044   1.075   5.029   0.143
 4349SOL     OW13045   0.397   3.627   0.815
 4349SOL    HW113046   0.385   3.685   0.891
 4349SOL    HW213047   0.412   3.541   0.854
 4350SOL     OW13048   4.575   3.937   1.740
 4350SOL    HW113049   4.638   3.925   1.669
 4350SOL    HW213050   4.546   4.028   1.731
 4351SOL     OW13051   4.653   0.793   2.802
 4351SOL    HW113052   4.650   0.873   2.855
 4351SOL    HW213053   4.723   0.809   2.739
 4352SOL     OW13054   0.783   2.655   2.420
 4352SOL    HW113055   0.820   2.743   2.420
 4352SOL    HW213056   0.821   2.613   2.342
 4353SOL     OW13057   5.045   4.583   3.355
 4353SOL    HW113058   4.998   4.529   3.419
 4353SOL    HW213059   5.036   4.672   3.388
 4354SOL     OW13060   0.618   3.219   3.291
 4354SOL    HW113061   0.650   3.145   3.342
 4354SOL    HW213062   0.620   3.293   3.352
 4355SOL     OW13063   1.209   2.633   3.325
 4355SOL    HW113064   1.279   2.569   3.319
 4355SOL    HW213065   1.222   2.690   3.249
 4356SOL     OW13066   0.013   1.856   0.423
 4356SOL    HW113067  -0.031   1.801   0.488
 4356SOL    HW213068   0.019   1.800   0.346
 4357SOL     OW13069   2.160   4.153   0.549
 4357SOL    HW113070   2.098   4.198   0.606
 4357SOL    HW213071   2.246   4.173   0.585
 4358SOL     OW13072   1.371   4.753   1.993
 4358SOL    HW113073   1.423   4.777   1.916
 4358SOL    HW213074   1.383   4.659   2.001
 4359SOL     OW13075   4.051  -0.008   4.718
 4359SOL    HW113076   4.044   0.011   4.624
 4359SOL    HW213077   4.091   0.071   4.755
 4360SOL     OW13078   1.885   4.151   2.539
 4360SOL    HW113079   1.979   4.152   2.556
 4360SOL    HW213080   1.878   4.157   2.444
 4361SOL     OW13081   0.499   3.747   5.039
 4361SOL    HW113082   0.541   3.670   5.001
 4361SOL    HW213083   0.405   3.734   5.021
 4362SOL     OW13084   2.503   3.739   0.361
 4362SOL    HW113085   2.444   3.786   0.302
 4362SOL    HW213086   2.499   3.789   0.442
 4363SOL     OW13087   2.257   5.163   3.435
 4363SOL    HW113088   2.216   5.127   3.513
 4363SOL    HW213089   2.246   5.094   3.369
 4364SOL     OW13090   2.980   1.646   4.825
 4364SOL    HW113091   2.951   1.559   4.851
 4364SOL    HW213092   2.992   1.693   4.907
 4365SOL     OW13093   1.564   2.150   3.539
 4365SOL    HW113094   1.579   2.159   3.634
 4365SOL    HW213095   1.512   2.226   3.516
 4366SOL     OW13096   1.888   0.494   0.630
 4366SOL    HW113097   1.948   0.422   0.650
 4366SOL    HW213098   1.815   0.483   0.691
 4367SOL     OW13099   5.108   2.099   4.764
 4367SOL    HW113100   5.109   2.039   4.689
 4367SOL    HW213101   5.163   2.056   4.829
 4368SOL     OW13102   2.645   3.545   1.045
 4368SOL    HW113103   2.731   3.534   1.007
 4368SOL    HW213104   2.614   3.630   1.011
 4369SOL     OW13105   0.740   1.896   0.431
 4369SOL    HW113106   0.793   1.850   0.365
 4369SOL    HW213107   0.778   1.983   0.436
 4370SOL     OW13108   3.214   2.353   4.842
 4370SOL    HW113109   3.191   2.261   4.854
 4370SOL    HW213110   3.176   2.377   4.758
 4371SOL     OW13111   3.769   1.244   0.602
 4371SOL    HW113112   3.826   1.277   0.672
 4371SOL    HW213113   3.829   1.198   0.544
 4372SOL     OW13114   1.382   4.540   1.478
 4372SOL    HW113115   1.316   4.557   1.411
 4372SOL    HW213116   1.351   4.462   1.524
 4373SOL     OW13117   1.198   4.368   0.422
 4373SOL    HW113118   1.252   4.299   0.460
 4373SOL    HW213119   1.149   4.324   0.352
 4374SOL     OW13120   0.188   4.733   2.839
 4374SOL    HW113121   0.224   4.758   2.924
 4374SOL    HW213122   0.135   4.808   2.811
 4375SOL     OW13123   2.233   4.419   2.474
 4375SOL    HW113124   2.322   4.429   2.508
 4375SOL    HW213125   2.205   4.507   2.453
 4376SOL     OW13126   3.891   3.744   1.872
 4376SOL    HW113127   3.850   3.708   1.951
 4376SOL    HW213128   3.938   3.671   1.833
 4377SOL     OW13129   5.146   0.158   4.259
 4377SOL    HW113130   5.173   0.108   4.182
 4377SOL    HW213131   5.193   0.116   4.332
 4378SOL     OW13132   2.782   0.888   2.956
 4378SOL    HW113133   2.835   0.930   3.023
 4378SOL    HW213134   2.846   0.844   2.899
 4379SOL     OW13135   4.306   3.817   0.804
 4379SOL    HW113136   4.359   3.827   0.725
 4379SOL    HW213137   4.265   3.731   0.794
 4380SOL     OW13138   0.944   2.352   0.172
 4380SOL    HW113139   0.879   2.290   0.137
 4380SOL    HW213140   0.970   2.404   0.096
 4381SOL     OW13141   4.857   2.160   2.788
 4381SOL    HW113142   4.945   2.152   2.751
 4381SOL    HW213143   4.853   2.091   2.854
 4382SOL     OW13144   3.379   2.173   3.872
 4382SOL    HW113145   3.303   2.141   3.825
 4382SOL    HW213146   3.368   2.139   3.961
 4383SOL     OW13147   3.468   2.188   0.962
 4383SOL    HW113148   3.525   2.260   0.934
 4383SOL    HW213149   3.443   2.144   0.881
 4384SOL     OW13150   0.628   3.166   0.321
 4384SOL    HW113151   0.608   3.156   0.414
 4384SOL    HW213152   0.650   3.078   0.291
 4385SOL     OW13153   1.759   1.360   0.553
 4385SOL    HW113154   1.818   1.363   0.477
 4385SOL    HW213155   1.732   1.451   0.565
 4386SOL     OW13156   2.994   3.737   1.255
 4386SOL    HW113157   2.983   3.738   1.160
 4386SOL    HW213158   2.980   3.828   1.281
 4387SOL     OW13159   4.939   3.447   2.112
 4387SOL    HW113160   4.999   3.429   2.040
 4387SOL    HW213161   4.994   3.448   2.190
 4388SOL     OW13162   3.346   3.754   0.525
 4388SOL    HW113163   3.312   3.665   0.517
 4388SOL    HW213164   3.431   3.752   0.481
 4389SOL     OW13165   1.917   1.308   2.073
 4389SOL    HW113166   1.839   1.362   2.059
 4389SOL    HW213167   1.885   1.219   2.078
 4390SOL     OW13168   5.046   3.209   0.835
 4390SOL    HW113169   5.042   3.297   0.872
 4390SOL    HW213170   4.965   3.200   0.785
 4391SOL     OW13171   3.996   4.196   2.325
 4391SOL    HW113172   3.933   4.126   2.308
 4391SOL    HW213173   4.037   4.171   2.409
 4392SOL     OW13174   5.069   2.034   4.136
 4392SOL    HW113175   4.975   2.054   4.133
 4392SOL    HW213176   5.095   2.030   4.044
 4393SOL     OW13177   1.700   2.298   4.311
 4393SOL    HW113178   1.749   2.315   4.231
 4393SOL    HW213179   1.653   2.217   4.294
 4394SOL     OW13180   1.616   1.734   2.845
 4394SOL    HW113181   1.703   1.726   2.807
 4394SOL    HW213182   1.604   1.828   2.858
 4395SOL     OW13183   3.086   4.729   2.149
 4395SOL    HW113184   3.113   4.819   2.127
 4395SOL    HW213185   3.122   4.675   2.079
 4396SOL     OW13186   0.286   2.337   3.472
 4396SOL    HW113187   0.254   2.411   3.421
 4396SOL    HW213188   0.234   2.339   3.552
 4397SOL     OW13189   3.359   1.527   4.146
 4397SOL    HW113190   3.383   1.618   4.165
 4397SOL    HW213191   3.443   1.481   4.140
 4398SOL     OW13192   1.211   0.063   1.550
 4398SOL    HW113193   1.287   0.054   1.492
 4398SOL    HW213194   1.226  -0.003   1.618
 4399SOL     OW13195   2.149   3.777   0.965
 4399SOL    HW113196   2.154   3.683   0.983
 4399SOL    HW213197   2.056   3.798   0.976
 4400SOL     OW13198   2.910   3.747   3.351
 4400SOL    HW113199   2.973   3.812   3.320
 4400SOL    HW213200   2.825   3.783   3.328
 4401SOL     OW13201   2.242   0.173   0.269
 4401SOL    HW113202   2.196   0.248   0.305
 4401SOL    HW213203   2.331   0.206   0.251
 4402SOL     OW13204   1.734   4.024   3.993
 4402SOL    HW113205   1.718   4.000   3.902
 4402SOL    HW213206   1.790   4.101   3.989
 4403SOL     OW13207   3.664   1.159   4.129
 4403SOL    HW113208   3.756   1.134   4.137
 4403SOL    HW213209   3.616   1.076   4.134
 4404SOL     OW13210   0.226   2.957   1.800
 4404SOL    HW113211   0.301   2.912   1.839
 4404SOL    HW213212   0.151   2.929   1.852
 4405SOL     OW13213   2.443   3.984   2.013
 4405SOL    HW113214   2.404   3.998   1.926
 4405SOL    HW213215   2.507   3.914   2.000
 4406SOL     OW13216   4.626   1.926   2.876
 4406SOL    HW113217   4.602   2.014   2.846
 4406SOL    HW213218   4.570   1.910   2.951
 4407SOL     OW13219   4.084   1.927   4.349
 4407SOL    HW113220   4.131   1.999   4.392
 4407SOL    HW213221   3.992   1.955   4.348
 4408SOL     OW13222   0.032   5.047   1.537
 4408SOL    HW113223   0.078   5.113   1.589
 4408SOL    HW213224  -0.042   5.093   1.499
 4409SOL     OW13225   1.376   2.822   1.761
 4409SOL    HW113226   1.285   2.815   1.790
 4409SOL    HW213227   1.394   2.738   1.719
 4410SOL     OW13228   4.259   0.458   0.605
 4410SOL    HW113229   4.297   0.447   0.692
 4410SOL    HW213230   4.331   0.492   0.551
 4411SOL     OW13231   3.138   0.276   0.529
 4411SOL    HW113232   3.047   0.257   0.505
 4411SOL    HW213233   3.139   0.369   0.550
 4412SOL     OW13234   1.940   1.943   4.994
 4412SOL    HW113235   1.967   2.007   5.060
 4412SOL    HW213236   1.866   1.984   4.950
 4413SOL     OW13237   2.892   2.398   0.714
 4413SOL    HW113238   2.856   2.403   0.626
 4413SOL    HW213239   2.841   2.331   0.758
 4414SOL     OW13240   1.259   1.784   0.246
 4414SOL    HW113241   1.185   1.732   0.277
 4414SOL    HW213242   1.304   1.726   0.184
 4415SOL     OW13243   0.375   1.873   0.041
 4415SOL    HW113244   0.390   1.794   0.094
 4415SOL    HW213245   0.401   1.848  -0.047
 4416SOL     OW13246   4.407   4.134   3.008
 4416SOL    HW113247   4.416   4.103   2.918
 4416SOL    HW213248   4.475   4.086   3.057
 4417SOL     OW13249   1.890   3.568   0.823
 4417SOL    HW113250   1.815   3.628   0.829
 4417SOL    HW213251   1.859   3.498   0.765
 4418SOL     OW13252   3.868   4.969   0.505
 4418SOL    HW113253   3.815   4.956   0.427
 4418SOL    HW213254   3.862   4.887   0.553
 4419SOL     OW13255   3.874   4.246   5.168
 4419SOL    HW113256   3.929   4.179   5.210
 4419SOL    HW213257   3.929   4.280   5.097
 4420SOL     OW13258   4.551   2.357   2.438
 4420SOL    HW113259   4.488   2.294   2.471
 4420SOL    HW213260   4.624   2.352   2.500
 4421SOL     OW13261   4.652   1.519   4.595
 4421SOL    HW113262   4.653   1.506   4.690
 4421SOL    HW213263   4.562   1.502   4.569
 4422SOL     OW13264   0.650   3.168   4.499
 4422SOL    HW113265   0.576   3.213   4.458
 4422SOL    HW213266   0.635   3.178   4.593
 4423SOL     OW13267   3.709   3.845   0.074
 4423SOL    HW113268   3.639   3.807   0.128
 4423SOL    HW213269   3.700   3.940   0.086
 4424SOL     OW13270   1.735   4.859   3.713
 4424SOL    HW113271   1.780   4.857   3.797
 4424SOL    HW213272   1.643   4.843   3.734
 4425SOL     OW13273   4.758   1.656   2.796
 4425SOL    HW113274   4.701   1.733   2.806
 4425SOL    HW213275   4.698   1.583   2.782
 4426SOL     OW13276   4.027   1.447   5.205
 4426SOL    HW113277   4.051   1.365   5.161
 4426SOL    HW213278   3.979   1.496   5.138
 4427SOL     OW13279   2.721   0.209   4.166
 4427SOL    HW113280   2.729   0.280   4.102
 4427SOL    HW213281   2.627   0.190   4.169
 4428SOL     OW13282   3.434   4.256   0.688
 4428SOL    HW113283   3.463   4.197   0.619
 4428SOL    HW213284   3.491   4.332   0.680
 4429SOL     OW13285   2.186   4.792   0.938
 4429SOL    HW113286   2.103   4.746   0.949
 4429SOL    HW213287   2.233   4.778   1.021
 4430SOL     OW13288   1.272   3.592   3.447
 4430SOL    HW113289   1.259   3.647   3.524
 4430SOL    HW213290   1.185   3.584   3.408
 4431SOL     OW13291   4.701   3.036   2.917
 4431SOL    HW113292   4.744   3.121   2.924
 4431SOL    HW213293   4.758   2.976   2.964
 4432SOL     OW13294   0.144   3.926   4.276
 4432SOL    HW113295   0.113   3.996   4.218
 4432SOL    HW213296   0.072   3.863   4.277
 4433SOL     OW13297   5.044   0.103   4.715
 4433SOL    HW113298   4.962   0.079   4.673
 4433SOL    HW213299   5.057   0.036   4.782
 4434SOL     OW13300   3.706   4.020   1.329
 4434SOL    HW113301   3.661   3.935   1.321
 4434SOL    HW213302   3.724   4.046   1.238
 4435SOL     OW13303   2.718   4.035   1.283
 4435SOL    HW113304   2.700   3.941   1.270
 4435SOL    HW213305   2.642   4.079   1.247
 4436SOL     OW13306   2.601   2.250   1.084
 4436SOL    HW113307   2.563   2.312   1.146
 4436SOL    HW213308   2.691   2.281   1.071
 4437SOL     OW13309   4.410   4.654   1.256
 4437SOL    HW113310   4.318   4.678   1.266
 4437SOL    HW213311   4.450   4.680   1.339
 4438SOL     OW13312   4.819   0.091   0.490
 4438SOL    HW113313   4.732   0.069   0.524
 4438SOL    HW213314   4.818   0.061   0.399
 4439SOL     OW13315   4.541   2.263   4.136
 4439SOL    HW113316   4.499   2.348   4.151
 4439SOL    HW213317   4.494   2.203   4.193
 4440SOL     OW13318   1.712   2.964   4.644
 4440SOL    HW113319   1.761   2.902   4.698
 4440SOL    HW213320   1.624   2.927   4.638
 4441SOL     OW13321   1.342   4.176   2.975
 4441SOL    HW113322   1.332   4.184   3.070
 4441SOL    HW213323   1.427   4.215   2.956
 4442SOL     OW13324   2.336   4.983   1.792
 4442SOL    HW113325   2.289   4.901   1.779
 4442SOL    HW213326   2.349   4.989   1.887
 4443SOL     OW13327   4.690   3.346   1.171
 4443SOL    HW113328   4.759   3.410   1.153
 4443SOL    HW213329   4.663   3.314   1.085
 4444SOL     OW13330   2.497   3.845   0.612
 4444SOL    HW113331   2.460   3.785   0.678
 4444SOL    HW213332   2.509   3.927   0.659
 4445SOL     OW13333   0.701   5.051   3.378
 4445SOL    HW113334   0.740   5.081   3.296
 4445SOL    HW213335   0.752   5.094   3.446
 4446SOL     OW13336   3.152   1.656   0.494
 4446SOL    HW113337   3.132   1.742   0.529
 4446SOL    HW213338   3.247   1.646   0.506
 4447SOL     OW13339   1.110   0.341   3.210
 4447SOL    HW113340   1.141   0.333   3.120
 4447SOL    HW213341   1.187   0.368   3.260
 4448SOL     OW13342   1.070   2.241   3.451
 4448SOL    HW113343   0.976   2.244   3.469
 4448SOL    HW213344   1.110   2.226   3.536
 4449SOL     OW13345   1.541   0.249   0.988
 4449SOL    HW113346   1.456   0.258   1.032
 4449SOL    HW213347   1.530   0.172   0.932
 4450SOL     OW13348   1.003   4.907   3.370
 4450SOL    HW113349   1.044   4.856   3.300
 4450SOL    HW213350   1.023   4.998   3.348
 4451SOL     OW13351   0.027   5.193   1.025
 4451SOL    HW113352   0.031   5.181   0.930
 4451SOL    HW213353   0.097   5.137   1.059
 4452SOL     OW13354   3.446   2.600   4.809
 4452SOL    HW113355   3.434   2.631   4.899
 4452SOL    HW213356   3.519   2.538   4.814
 4453SOL     OW13357   2.175   3.358   0.300
 4453SOL    HW113358   2.165   3.391   0.389
 4453SOL    HW213359   2.268   3.336   0.292
 4454SOL     OW13360   2.873   3.610   0.881
 4454SOL    HW113361   2.897   3.632   0.791
 4454SOL    HW213362   2.916   3.677   0.934
 4455SOL     OW13363   1.206   1.530   4.474
 4455SOL    HW113364   1.171   1.456   4.525
 4455SOL    HW213365   1.128   1.577   4.445
 4456SOL     OW13366   5.113   0.264   2.205
 4456SOL    HW113367   5.116   0.169   2.211
 4456SOL    HW213368   5.098   0.294   2.295
 4457SOL     OW13369   0.330   1.804   1.790
 4457SOL    HW113370   0.247   1.817   1.745
 4457SOL    HW213371   0.396   1.826   1.724
 4458SOL     OW13372   4.450   0.227   2.075
 4458SOL    HW113373   4.389   0.219   2.001
 4458SOL    HW213374   4.432   0.151   2.130
 4459SOL     OW13375   4.742   2.482   2.979
 4459SOL    HW113376   4.833   2.511   2.975
 4459SOL    HW213377   4.697   2.553   3.026
 4460SOL     OW13378   0.976   4.603   4.836
 4460SOL    HW113379   1.070   4.616   4.846
 4460SOL    HW213380   0.938   4.688   4.859
 4461SOL     OW13381   0.531   1.021   2.546
 4461SOL    HW113382   0.570   0.954   2.601
 4461SOL    HW213383   0.508   1.091   2.607
 4462SOL     OW13384   0.374   0.705   2.563
 4462SOL    HW113385   0.383   0.741   2.651
 4462SOL    HW213386   0.409   0.773   2.506
 4463SOL     OW13387   4.514   2.658   2.094
 4463SOL    HW113388   4.598   2.661   2.047
 4463SOL    HW213389   4.538   2.649   2.186
 4464SOL     OW13390   5.080   2.087   0.885
 4464SOL    HW113391   5.090   2.169   0.934
 4464SOL    HW213392   5.141   2.094   0.812
 4465SOL     OW13393   4.806   1.186   3.059
 4465SOL    HW113394   4.853   1.103   3.053
 4465SOL    HW213395   4.874   1.252   3.069
 4466SOL     OW13396   2.302   2.156   0.325
 4466SOL    HW113397   2.242   2.228   0.302
 4466SOL    HW213398   2.379   2.200   0.361
 4467SOL     OW13399   4.274   1.206   1.242
 4467SOL    HW113400   4.227   1.159   1.310
 4467SOL    HW213401   4.355   1.156   1.230
 4468SOL     OW13402   3.766   3.150   0.250
 4468SOL    HW113403   3.817   3.143   0.169
 4468SOL    HW213404   3.751   3.244   0.260
 4469SOL     OW13405   2.624   1.825   0.984
 4469SOL    HW113406   2.697   1.817   0.923
 4469SOL    HW213407   2.663   1.862   1.063
 4470SOL     OW13408   4.991   4.735   4.997
 4470SOL    HW113409   5.005   4.646   5.029
 4470SOL    HW213410   4.961   4.725   4.907
 4471SOL     OW13411   1.239   4.212   1.579
 4471SOL    HW113412   1.162   4.156   1.579
 4471SOL    HW213413   1.209   4.297   1.611
 4472SOL     OW13414   3.005   5.147   3.262
 4472SOL    HW113415   2.940   5.216   3.247
 4472SOL    HW213416   2.959   5.066   3.244
 4473SOL     OW13417   1.562   2.944   1.938
 4473SOL    HW113418   1.487   2.899   1.900
 4473SOL    HW213419   1.613   2.974   1.862
 4474SOL     OW13420   1.356   0.895   0.740
 4474SOL    HW113421   1.322   0.942   0.664
 4474SOL    HW213422   1.293   0.825   0.754
 4475SOL     OW13423   3.048   0.358   3.179
 4475SOL    HW113424   3.130   0.313   3.199
 4475SOL    HW213425   3.065   0.402   3.095
 4476SOL     OW13426   2.460   0.515   0.070
 4476SOL    HW113427   2.368   0.541   0.082
 4476SOL    HW213428   2.510   0.593   0.094
 4477SOL     OW13429   3.608   1.415   4.184
 4477SOL    HW113430   3.635   1.324   4.191
 4477SOL    HW213431   3.687   1.463   4.160
 4478SOL     OW13432   3.229  -0.002   0.559
 4478SOL    HW113433   3.262   0.087   0.547
 4478SOL    HW213434   3.165  -0.013   0.490
 4479SOL     OW13435   3.268   2.792   0.526
 4479SOL    HW113436   3.225   2.877   0.516
 4479SOL    HW213437   3.357   2.813   0.556
 4480SOL     OW13438   4.470   0.038   4.498
 4480SOL    HW113439   4.470   0.036   4.402
 4480SOL    HW213440   4.453   0.129   4.520
 4481SOL     OW13441   4.453   0.251   3.602
 4481SOL    HW113442   4.378   0.302   3.570
 4481SOL    HW213443   4.468   0.285   3.691
 4482SOL     OW13444   4.129   1.813   1.940
 4482SOL    HW113445   4.202   1.862   1.900
 4482SOL    HW213446   4.089   1.766   1.867
 4483SOL     OW13447   0.252   3.966   3.583
 4483SOL    HW113448   0.246   4.011   3.667
 4483SOL    HW213449   0.346   3.967   3.562
 4484SOL     OW13450   2.180   3.119   2.209
 4484SOL    HW113451   2.180   3.089   2.300
 4484SOL    HW213452   2.087   3.123   2.185
 4485SOL     OW13453   2.625   2.572   1.790
 4485SOL    HW113454   2.665   2.485   1.785
 4485SOL    HW213455   2.547   2.566   1.735
 4486SOL     OW13456   3.317   3.992   3.362
 4486SOL    HW113457   3.364   3.980   3.279
 4486SOL    HW213458   3.303   4.086   3.368
 4487SOL     OW13459   2.948   5.071   4.798
 4487SOL    HW113460   2.863   5.071   4.754
 4487SOL    HW213461   2.929   5.102   4.887
 4488SOL     OW13462   0.905   0.217   3.348
 4488SOL    HW113463   0.825   0.245   3.302
 4488SOL    HW213464   0.972   0.277   3.317
 4489SOL     OW13465   5.083   2.506   2.502
 4489SOL    HW113466   5.144   2.530   2.572
 4489SOL    HW213467   5.006   2.560   2.518
 4490SOL     OW13468   2.685   2.612   4.784
 4490SOL    HW113469   2.660   2.704   4.791
 4490SOL    HW213470   2.695   2.598   4.690
 4491SOL     OW13471   2.872   2.030   1.101
 4491SOL    HW113472   2.926   1.971   1.049
 4491SOL    HW213473   2.931   2.065   1.167
 4492SOL     OW13474   2.878   4.519   0.925
 4492SOL    HW113475   2.836   4.477   0.851
 4492SOL    HW213476   2.813   4.517   0.995
 4493SOL     OW13477   3.262   2.929   4.187
 4493SOL    HW113478   3.243   2.844   4.227
 4493SOL    HW213479   3.330   2.910   4.122
 4494SOL     OW13480   3.891   1.925   2.055
 4494SOL    HW113481   3.872   2.014   2.026
 4494SOL    HW213482   3.979   1.907   2.023
 4495SOL     OW13483   3.543   0.572   4.544
 4495SOL    HW113484   3.461   0.602   4.504
 4495SOL    HW213485   3.611   0.603   4.484
 4496SOL     OW13486   4.587   0.781   1.590
 4496SOL    HW113487   4.505   0.824   1.613
 4496SOL    HW213488   4.580   0.694   1.628
 4497SOL     OW13489   2.467   0.088   2.171
 4497SOL    HW113490   2.511   0.125   2.248
 4497SOL    HW213491   2.379   0.126   2.173
 4498SOL     OW13492   4.732   4.882   2.990
 4498SOL    HW113493   4.656   4.937   3.011
 4498SOL    HW213494   4.807   4.932   3.019
 4499SOL     OW13495   4.049   1.682   3.022
 4499SOL    HW113496   4.117   1.684   2.954
 4499SOL    HW213497   3.974   1.641   2.980
 4500SOL     OW13498   4.532   0.611   2.650
 4500SOL    HW113499   4.558   0.526   2.686
 4500SOL    HW213500   4.567   0.675   2.712
 4501SOL     OW13501   0.175   3.877   2.819
 4501SOL    HW113502   0.257   3.839   2.790
 4501SOL    HW213503   0.107   3.820   2.782
 4502SOL     OW13504   0.458   3.311   0.143
 4502SOL    HW113505   0.499   3.250   0.205
 4502SOL    HW213506   0.417   3.377   0.199
 4503SOL     OW13507   2.603   2.811   4.133
 4503SOL    HW113508   2.627   2.750   4.063
 4503SOL    HW213509   2.566   2.756   4.202
 4504SOL     OW13510   2.259   4.799   4.141
 4504SOL    HW113511   2.288   4.718   4.182
 4504SOL    HW213512   2.185   4.828   4.194
 4505SOL     OW13513   0.930   3.970   1.157
 4505SOL    HW113514   0.849   4.018   1.175
 4505SOL    HW213515   0.993   4.005   1.220
 4506SOL     OW13516   4.139   2.490   1.388
 4506SOL    HW113517   4.169   2.575   1.357
 4506SOL    HW213518   4.052   2.507   1.424
 4507SOL     OW13519   3.001   2.304   2.432
 4507SOL    HW113520   3.058   2.231   2.454
 4507SOL    HW213521   2.953   2.322   2.513
 4508SOL     OW13522   1.925   0.771   2.305
 4508SOL    HW113523   1.984   0.775   2.230
 4508SOL    HW213524   1.910   0.863   2.329
 4509SOL     OW13525   0.789   2.390   0.592
 4509SOL    HW113526   0.764   2.468   0.543
 4509SOL    HW213527   0.882   2.403   0.613
 4510SOL     OW13528   5.143   2.403   3.471
 4510SOL    HW113529   5.097   2.391   3.555
 4510SOL    HW213530   5.115   2.329   3.418
 4511SOL     OW13531   4.440   3.018   3.586
 4511SOL    HW113532   4.451   3.111   3.604
 4511SOL    HW213533   4.499   2.975   3.647
 4512SOL     OW13534   4.252   4.085   4.360
 4512SOL    HW113535   4.170   4.119   4.397
 4512SOL    HW213536   4.252   3.992   4.383
 4513SOL     OW13537   2.409   0.362   3.663
 4513SOL    HW113538   2.423   0.269   3.648
 4513SOL    HW213539   2.321   0.379   3.628
 4514SOL     OW13540   3.951   2.705   1.782
 4514SOL    HW113541   4.006   2.666   1.715
 4514SOL    HW213542   3.932   2.793   1.751
 4515SOL     OW13543   2.878   3.212   1.254
 4515SOL    HW113544   2.891   3.235   1.347
 4515SOL    HW213545   2.946   3.262   1.208
 4516SOL     OW13546   1.016   3.560   1.310
 4516SOL    HW113547   1.010   3.493   1.378
 4516SOL    HW213548   0.928   3.566   1.274
 4517SOL     OW13549   0.821   0.933   3.758
 4517SOL    HW113550   0.761   0.992   3.712
 4517SOL    HW213551   0.878   0.899   3.690
 4518SOL     OW13552   1.874   4.839   2.516
 4518SOL    HW113553   1.805   4.816   2.454
 4518SOL    HW213554   1.834   4.828   2.602
 4519SOL     OW13555   1.025   0.845   0.371
 4519SOL    HW113556   1.072   0.775   0.326
 4519SOL    HW213557   0.963   0.878   0.307
 4520SOL     OW13558   4.795   1.423   3.326
 4520SOL    HW113559   4.740   1.345   3.324
 4520SOL    HW213560   4.839   1.424   3.241
 4521SOL     OW13561   3.223   3.812   0.797
 4521SOL    HW113562   3.253   3.774   0.715
 4521SOL    HW213563   3.279   3.889   0.810
 4522SOL     OW13564   0.455   0.815   2.295
 4522SOL    HW113565   0.456   0.748   2.227
 4522SOL    HW213566   0.385   0.875   2.269
 4523SOL     OW13567   2.497   3.539   4.761
 4523SOL    HW113568   2.453   3.589   4.829
 4523SOL    HW213569   2.571   3.497   4.805
 4524SOL     OW13570   3.279   5.019   1.673
 4524SOL    HW113571   3.365   5.017   1.715
 4524SOL    HW213572   3.217   5.000   1.743
 4525SOL     OW13573   0.752   2.939   4.165
 4525SOL    HW113574   0.806   2.860   4.161
 4525SOL    HW213575   0.805   3.007   4.124
 4526SOL     OW13576   0.280   1.151   0.675
 4526SOL    HW113577   0.337   1.116   0.744
 4526SOL    HW213578   0.230   1.076   0.644
 4527SOL     OW13579   1.703   0.143   3.324
 4527SOL    HW113580   1.758   0.078   3.280
 4527SOL    HW213581   1.731   0.139   3.416
 4528SOL     OW13582   2.066   3.210   3.906
 4528SOL    HW113583   2.035   3.273   3.972
 4528SOL    HW213584   2.034   3.246   3.823
 4529SOL     OW13585   5.014   0.948   3.095
 4529SOL    HW113586   5.050   0.906   3.017
 4529SOL    HW213587   4.941   0.891   3.121
 4530SOL     OW13588   3.060   1.717   4.591
 4530SOL    HW113589   3.030   1.690   4.678
 4530SOL    HW213590   3.002   1.671   4.530
 4531SOL     OW13591   4.722   1.151   3.318
 4531SOL    HW113592   4.758   1.062   3.315
 4531SOL    HW213593   4.680   1.163   3.233
 4532SOL     OW13594   3.002   1.104   4.498
 4532SOL    HW113595   2.948   1.126   4.422
 4532SOL    HW213596   3.052   1.184   4.516
 4533SOL     OW13597   0.698   0.082   4.418
 4533SOL    HW113598   0.658   0.050   4.499
 4533SOL    HW213599   0.700   0.177   4.428
 4534SOL     OW13600   1.047   4.126   4.080
 4534SOL    HW113601   0.984   4.069   4.124
 4534SOL    HW213602   1.081   4.182   4.149
 4535SOL     OW13603   4.162   1.646   0.401
 4535SOL    HW113604   4.141   1.587   0.473
 4535SOL    HW213605   4.192   1.588   0.331
 4536SOL     OW13606   2.955   2.151   4.163
 4536SOL    HW113607   2.876   2.120   4.119
 4536SOL    HW213608   3.006   2.072   4.180
 4537SOL     OW13609   1.208   0.006   2.145
 4537SOL    HW113610   1.184  -0.002   2.237
 4537SOL    HW213611   1.163   0.085   2.115
 4538SOL     OW13612   0.266   4.319   0.557
 4538SOL    HW113613   0.305   4.392   0.509
 4538SOL    HW213614   0.326   4.246   0.542
 4539SOL     OW13615   4.292   0.189   1.359
 4539SOL    HW113616   4.351   0.255   1.394
 4539SOL    HW213617   4.262   0.225   1.276
 4540SOL     OW13618   1.501   0.970   3.949
 4540SOL    HW113619   1.481   1.050   3.998
 4540SOL    HW213620   1.431   0.963   3.885
 4541SOL     OW13621   2.619   4.635   3.339
 4541SOL    HW113622   2.693   4.691   3.362
 4541SOL    HW213623   2.586   4.672   3.257
 4542SOL     OW13624   1.031   2.103   4.439
 4542SOL    HW113625   1.042   2.039   4.368
 4542SOL    HW213626   1.013   2.185   4.394
 4543SOL     OW13627   4.967   1.220   2.080
 4543SOL    HW113628   4.974   1.168   2.000
 4543SOL    HW213629   4.909   1.293   2.055
 4544SOL     OW13630   2.448   1.532   1.985
 4544SOL    HW113631   2.360   1.560   1.963
 4544SOL    HW213632   2.441   1.496   2.074
 4545SOL     OW13633   2.939   1.352   4.939
 4545SOL    HW113634   2.904   1.264   4.952
 4545SOL    HW213635   2.921   1.398   5.022
 4546SOL     OW13636   4.568   2.768   4.687
 4546SOL    HW113637   4.516   2.733   4.760
 4546SOL    HW213638   4.560   2.863   4.695
 4547SOL     OW13639   1.100   2.872   1.593
 4547SOL    HW113640   1.152   2.814   1.537
 4547SOL    HW213641   1.083   2.820   1.672
 4548SOL     OW13642   3.655   3.161   1.414
 4548SOL    HW113643   3.642   3.099   1.341
 4548SOL    HW213644   3.750   3.169   1.422
 4549SOL     OW13645   2.665   4.491   1.123
 4549SOL    HW113646   2.721   4.413   1.126
 4549SOL    HW213647   2.718   4.561   1.161
 4550SOL     OW13648   3.265   2.360   3.406
 4550SOL    HW113649   3.275   2.391   3.316
 4550SOL    HW213650   3.229   2.272   3.398
 4551SOL     OW13651   2.077   1.167   1.217
 4551SOL    HW113652   2.001   1.119   1.184
 4551SOL    HW213653   2.044   1.211   1.296
 4552SOL     OW13654   1.491   2.371   5.128
 4552SOL    HW113655   1.407   2.410   5.153
 4552SOL    HW213656   1.550   2.391   5.201
 4553SOL     OW13657   0.916   1.547   4.418
 4553SOL    HW113658   0.858   1.583   4.350
 4553SOL    HW213659   0.865   1.553   4.498
 4554SOL     OW13660   3.463   3.612   0.860
 4554SOL    HW113661   3.523   3.609   0.934
 4554SOL    HW213662   3.441   3.520   0.844
 4555SOL     OW13663   3.524   2.179   1.368
 4555SOL    HW113664   3.459   2.244   1.341
 4555SOL    HW213665   3.572   2.220   1.439
 4556SOL     OW13666   3.807   3.277   4.012
 4556SOL    HW113667   3.751   3.220   4.065
 4556SOL    HW213668   3.869   3.217   3.970
 4557SOL     OW13669   2.811   2.058   5.009
 4557SOL    HW113670   2.779   2.026   5.093
 4557SOL    HW213671   2.795   1.985   4.948
 4558SOL     OW13672   0.057   1.733   0.185
 4558SOL    HW113673   0.057   1.669   0.114
 4558SOL    HW213674   0.135   1.787   0.169
 4559SOL     OW13675   0.321   2.078   4.122
 4559SOL    HW113676   0.315   1.990   4.086
 4559SOL    HW213677   0.322   2.066   4.217
 4560SOL     OW13678   4.019   2.572   5.102
 4560SOL    HW113679   4.110   2.600   5.088
 4560SOL    HW213680   4.012   2.488   5.057
 4561SOL     OW13681   4.448   1.311   0.206
 4561SOL    HW113682   4.462   1.377   0.274
 4561SOL    HW213683   4.515   1.245   0.223
 4562SOL     OW13684   4.069   3.630   2.296
 4562SOL    HW113685   4.113   3.547   2.313
 4562SOL    HW213686   4.127   3.696   2.334
 4563SOL     OW13687   5.199   1.092   2.247
 4563SOL    HW113688   5.233   1.011   2.286
 4563SOL    HW213689   5.125   1.115   2.303
 4564SOL     OW13690   2.399   4.992   2.045
 4564SOL    HW113691   2.493   5.008   2.049
 4564SOL    HW213692   2.369   4.999   2.136
 4565SOL     OW13693   0.488   0.320   4.001
 4565SOL    HW113694   0.516   0.409   4.022
 4565SOL    HW213695   0.546   0.264   4.053
 4566SOL     OW13696   4.174   3.397   2.357
 4566SOL    HW113697   4.144   3.306   2.352
 4566SOL    HW213698   4.191   3.411   2.450
 4567SOL     OW13699   2.864   2.944   3.897
 4567SOL    HW113700   2.782   2.906   3.930
 4567SOL    HW213701   2.911   2.870   3.859
 4568SOL     OW13702   2.180   0.066   0.909
 4568SOL    HW113703   2.234   0.025   0.977
 4568SOL    HW213704   2.135   0.138   0.953
 4569SOL     OW13705   2.144   2.377   0.260
 4569SOL    HW113706   2.181   2.449   0.209
 4569SOL    HW213707   2.125   2.416   0.345
 4570SOL     OW13708   0.024   0.762   1.010
 4570SOL    HW113709   0.026   0.673   0.974
 4570SOL    HW213710   0.020   0.819   0.933
 4571SOL     OW13711   1.032   0.544   1.081
 4571SOL    HW113712   1.066   0.471   1.132
 4571SOL    HW213713   1.106   0.573   1.028
 4572SOL     OW13714   0.263   2.601   3.324
 4572SOL    HW113715   0.345   2.562   3.295
 4572SOL    HW213716   0.290   2.664   3.391
 4573SOL     OW13717   3.610   4.501   1.527
 4573SOL    HW113718   3.596   4.522   1.620
 4573SOL    HW213719   3.574   4.413   1.517
 4574SOL     OW13720   0.505   1.904   3.242
 4574SOL    HW113721   0.444   1.835   3.215
 4574SOL    HW213722   0.541   1.938   3.160
 4575SOL     OW13723   1.345   3.497   1.084
 4575SOL    HW113724   1.307   3.429   1.141
 4575SOL    HW213725   1.301   3.577   1.110
 4576SOL     OW13726   0.053   4.765   1.568
 4576SOL    HW113727   0.034   4.742   1.659
 4576SOL    HW213728   0.030   4.858   1.562
 4577SOL     OW13729   1.260   0.976   0.497
 4577SOL    HW113730   1.314   0.988   0.419
 4577SOL    HW213731   1.178   0.938   0.464
 4578SOL     OW13732   0.430   2.329   1.535
 4578SOL    HW113733   0.390   2.339   1.448
 4578SOL    HW213734   0.357   2.338   1.596
 4579SOL     OW13735   1.532   0.828   4.882
 4579SOL    HW113736   1.621   0.847   4.854
 4579SOL    HW213737   1.497   0.912   4.910
 4580SOL     OW13738   4.267   5.206   0.299
 4580SOL    HW113739   4.292   5.134   0.357
 4580SOL    HW213740   4.171   5.207   0.303
 4581SOL     OW13741   2.314   0.358   0.567
 4581SOL    HW113742   2.232   0.353   0.616
 4581SOL    HW213743   2.364   0.282   0.597
 4582SOL     OW13744   1.378   2.431   3.227
 4582SOL    HW113745   1.344   2.367   3.165
 4582SOL    HW213746   1.464   2.454   3.194
 4583SOL     OW13747   0.883   1.066   3.069
 4583SOL    HW113748   0.976   1.081   3.050
 4583SOL    HW213749   0.843   1.152   3.062
 4584SOL     OW13750   3.927   2.339   5.012
 4584SOL    HW113751   3.846   2.379   5.045
 4584SOL    HW213752   3.922   2.248   5.041
 4585SOL     OW13753   1.496   4.162   2.716
 4585SOL    HW113754   1.465   4.081   2.757
 4585SOL    HW213755   1.537   4.211   2.787
 4586SOL     OW13756   4.143   1.414   1.130
 4586SOL    HW113757   4.200   1.357   1.182
 4586SOL    HW213758   4.168   1.502   1.157
 4587SOL     OW13759   0.517   0.104   3.305
 4587SOL    HW113760   0.439   0.107   3.360
 4587SOL    HW213761   0.558   0.020   3.325
 4588SOL     OW13762   4.365   1.741   3.631
 4588SOL    HW113763   4.442   1.687   3.612
 4588SOL    HW213764   4.332   1.707   3.714
 4589SOL     OW13765   4.944   3.301   1.585
 4589SOL    HW113766   4.898   3.334   1.662
 4589SOL    HW213767   4.940   3.206   1.594
 4590SOL     OW13768   4.288   2.617   3.406
 4590SOL    HW113769   4.198   2.586   3.413
 4590SOL    HW213770   4.341   2.540   3.426
 4591SOL     OW13771   3.926   4.408   0.525
 4591SOL    HW113772   3.985   4.461   0.579
 4591SOL    HW213773   3.964   4.412   0.437
 4592SOL     OW13774   1.573   3.933   4.652
 4592SOL    HW113775   1.514   3.889   4.713
 4592SOL    HW213776   1.583   4.021   4.688
 4593SOL     OW13777   3.268   1.475   0.216
 4593SOL    HW113778   3.179   1.439   0.222
 4593SOL    HW213779   3.260   1.544   0.149
 4594SOL     OW13780   4.476   1.942   3.307
 4594SOL    HW113781   4.429   1.984   3.379
 4594SOL    HW213782   4.501   1.856   3.342
 4595SOL     OW13783   0.879   2.729   2.764
 4595SOL    HW113784   0.798   2.696   2.803
 4595SOL    HW213785   0.857   2.816   2.732
 4596SOL     OW13786   1.540   4.722  -0.006
 4596SOL    HW113787   1.467   4.720   0.056
 4596SOL    HW213788   1.603   4.783   0.033
 4597SOL     OW13789   0.744   3.013   2.884
 4597SOL    HW113790   0.694   2.953   2.940
 4597SOL    HW213791   0.719   2.990   2.795
 4598SOL     OW13792   0.485   4.791   1.085
 4598SOL    HW113793   0.549   4.729   1.051
 4598SOL    HW213794   0.528   4.831   1.161
 4599SOL     OW13795   2.710   0.073   1.693
 4599SOL    HW113796   2.790   0.033   1.727
 4599SOL    HW213797   2.715   0.164   1.720
 4600SOL     OW13798   2.863   2.652   3.779
 4600SOL    HW113799   2.915   2.664   3.699
 4600SOL    HW213800   2.928   2.650   3.849
   5.19386   5.19386   5.17147
