YT0_GMX.gro created by acpype (v: 2023.10.27) on Tue Nov  4 02:14:39 2025
 55
    1  MOL   C1    1   0.589  -0.368   0.003
    1  MOL   C2    2   0.488  -0.259  -0.007
    1  MOL   C3    3   0.518  -0.122  -0.033
    1  MOL   C4    4   0.403  -0.046  -0.037
    1  MOL   C5    5   0.286   0.169  -0.066
    1  MOL   C6    6   0.194   0.372  -0.103
    1  MOL   C7    7   0.065   0.323  -0.083
    1  MOL   N1    8   0.398   0.091  -0.060
    1  MOL   C8    9  -0.057   0.408  -0.102
    1  MOL   C9   10   0.059   0.187  -0.048
    1  MOL  C10   11  -0.056  -0.010   0.045
    1  MOL  C11   12  -0.196   0.022   0.105
    1  MOL  C12   13  -0.214  -0.005   0.255
    1  MOL  C13   14  -0.111   0.059   0.335
    1  MOL  C14   15  -0.436   0.015   0.043
    1  MOL  C15   16  -0.521  -0.022  -0.077
    1  MOL   N2   17   0.306   0.298  -0.095
    1  MOL  C16   18  -0.606  -0.214  -0.212
    1  MOL  C17   19  -0.385  -0.230  -0.098
    1  MOL  C18   20  -0.306  -0.183   0.023
    1  MOL  C19   21  -0.169   0.169   0.062
    1  MOL   N3   22  -0.060   0.119  -0.026
    1  MOL   N4   23  -0.026   0.115   0.396
    1  MOL   N5   24  -0.302  -0.038   0.022
    1  MOL   N6   25  -0.524  -0.172  -0.093
    1  MOL   N7   26   0.169   0.109  -0.040
    1  MOL   S1   27   0.267  -0.149  -0.009
    1  MOL   N8   28   0.358  -0.288   0.007
    1  MOL   H1   29   0.618  -0.083  -0.047
    1  MOL   H2   30   0.208   0.477  -0.130
    1  MOL   H3   31   0.486   0.139  -0.079
    1  MOL   H4   32   0.023  -0.014   0.121
    1  MOL   H5   33  -0.046  -0.097  -0.021
    1  MOL   H6   34  -0.312   0.032   0.289
    1  MOL   H7   35  -0.211  -0.113   0.275
    1  MOL   H8   36  -0.433   0.124   0.050
    1  MOL   H9   37  -0.484  -0.023   0.136
    1  MOL  H10   38  -0.624   0.012  -0.067
    1  MOL  H11   39  -0.477   0.018  -0.169
    1  MOL  H12   40  -0.395  -0.339  -0.102
    1  MOL  H13   41  -0.339  -0.193  -0.190
    1  MOL  H14   42  -0.205  -0.225   0.016
    1  MOL  H15   43  -0.352  -0.225   0.115
    1  MOL  H16   44  -0.249   0.221   0.010
    1  MOL  H17   45  -0.133   0.230   0.146
    1  MOL  H18   46  -0.569  -0.210  -0.009
    1  MOL  H19   47  -0.707  -0.174  -0.201
    1  MOL  H20   48  -0.559  -0.174  -0.301
    1  MOL  H21   49  -0.609  -0.323  -0.215
    1  MOL  H22   50  -0.029   0.503  -0.149
    1  MOL  H23   51  -0.129   0.359  -0.168
    1  MOL  H24   52  -0.107   0.432  -0.008
    1  MOL  H25   53   0.647  -0.377  -0.089
    1  MOL  H26   54   0.659  -0.349   0.085
    1  MOL  H27   55   0.539  -0.463   0.022
   27.32400    19.31800    13.95400
