; YT0_GMX.top created by acpype (v: 2023.10.27) on Tue Nov  4 02:14:39 2025

[ defaults ]
; nbfunc        comb-rule       gen-pairs       fudgeLJ fudgeQQ
1               2               yes             0.5     0.8333333333

[ atomtypes ]
;name   bond_type     mass     charge   ptype   sigma         epsilon       Amb
 c3       c3          0.00000  0.00000   A     3.39771e-01   4.51035e-01 ; 1.91  0.1078
 cc       cc          0.00000  0.00000   A     3.31521e-01   4.13379e-01 ; 1.86  0.0988
 cd       cd          0.00000  0.00000   A     3.31521e-01   4.13379e-01 ; 1.86  0.0988
 ca       ca          0.00000  0.00000   A     3.31521e-01   4.13379e-01 ; 1.86  0.0988
 nu       nu          0.00000  0.00000   A     3.27904e-01   6.46428e-01 ; 1.84  0.1545
 cy       cy          0.00000  0.00000   A     3.39771e-01   4.51035e-01 ; 1.91  0.1078
 c1       c1          0.00000  0.00000   A     3.47896e-01   6.67766e-01 ; 1.95  0.1596
 c6       c6          0.00000  0.00000   A     3.39771e-01   4.51035e-01 ; 1.91  0.1078
 nb       nb          0.00000  0.00000   A     3.38417e-01   3.93714e-01 ; 1.90  0.0941
 nn       nn          0.00000  0.00000   A     3.18995e-01   8.99560e-01 ; 1.79  0.2150
 n1       n1          0.00000  0.00000   A     3.27352e-01   4.59403e-01 ; 1.84  0.1098
 n3       n3          0.00000  0.00000   A     3.36510e-01   3.58987e-01 ; 1.89  0.0858
 nx       nx          0.00000  0.00000   A     2.58860e-01   1.06495e+01 ; 1.45  2.5453
 ss       ss          0.00000  0.00000   A     3.53241e-01   1.18156e+00 ; 1.98  0.2824
 nd       nd          0.00000  0.00000   A     3.38417e-01   3.93714e-01 ; 1.90  0.0941
 ha       ha          0.00000  0.00000   A     2.62548e-01   6.73624e-02 ; 1.47  0.0161
 h4       h4          0.00000  0.00000   A     2.53639e-01   6.73624e-02 ; 1.42  0.0161
 hn       hn          0.00000  0.00000   A     1.10650e-01   4.18400e-02 ; 0.62  0.0100
 h1       h1          0.00000  0.00000   A     2.42200e-01   8.70272e-02 ; 1.36  0.0208
 hc       hc          0.00000  0.00000   A     2.60018e-01   8.70272e-02 ; 1.46  0.0208
 hx       hx          0.00000  0.00000   A     1.88746e-01   8.70272e-02 ; 1.06  0.0208

[ moleculetype ]
;name            nrexcl
 YT0              3

[ atoms ]
;   nr  type  resi  res  atom  cgnr     charge      mass       ; qtot   bond_type
     1   c3     1   MOL    C1    1    -0.200769     12.01000 ; qtot -0.201
     2   cc     1   MOL    C2    2     0.392088     12.01000 ; qtot 0.191
     3   cc     1   MOL    C3    3    -0.323855     12.01000 ; qtot -0.133
     4   cd     1   MOL    C4    4     0.064465     12.01000 ; qtot -0.068
     5   ca     1   MOL    C5    5     0.695377     12.01000 ; qtot 0.627
     6   ca     1   MOL    C6    6     0.171952     12.01000 ; qtot 0.799
     7   ca     1   MOL    C7    7    -0.096056     12.01000 ; qtot 0.703
     8   nu     1   MOL    N1    8    -0.377956     14.01000 ; qtot 0.325
     9   c3     1   MOL    C8    9    -0.278572     12.01000 ; qtot 0.047
    10   ca     1   MOL    C9   10     0.459584     12.01000 ; qtot 0.506
    11   cy     1   MOL   C10   11     0.002638     12.01000 ; qtot 0.509
    12   cy     1   MOL   C11   12     0.118155     12.01000 ; qtot 0.627
    13   c3     1   MOL   C12   13    -0.021797     12.01000 ; qtot 0.605
    14   c1     1   MOL   C13   14     0.241529     12.01000 ; qtot 0.847
    15   c6     1   MOL   C14   15    -0.045549     12.01000 ; qtot 0.801
    16   c6     1   MOL   C15   16    -0.036414     12.01000 ; qtot 0.765
    17   nb     1   MOL    N2   17    -0.673272     14.01000 ; qtot 0.092
    18   c3     1   MOL   C16   18    -0.235730     12.01000 ; qtot -0.144
    19   c6     1   MOL   C17   19    -0.036414     12.01000 ; qtot -0.181
    20   c6     1   MOL   C18   20    -0.045549     12.01000 ; qtot -0.226
    21   cy     1   MOL   C19   21     0.002638     12.01000 ; qtot -0.224
    22   nn     1   MOL    N3   22    -0.513644     14.01000 ; qtot -0.737
    23   n1     1   MOL    N4   23    -0.394198     14.01000 ; qtot -1.131
    24   n3     1   MOL    N5   24    -0.283119     14.01000 ; qtot -1.414
    25   nx     1   MOL    N6   25    -0.122937     14.01000 ; qtot -1.537
    26   nb     1   MOL    N7   26    -0.429687     14.01000 ; qtot -1.967
    27   ss     1   MOL    S1   27     0.086791     32.06000 ; qtot -1.880
    28   nd     1   MOL    N8   28    -0.489084     14.01000 ; qtot -2.369
    29   ha     1   MOL    H1   29     0.169942      1.00800 ; qtot -2.199
    30   h4     1   MOL    H2   30     0.166968      1.00800 ; qtot -2.032
    31   hn     1   MOL    H3   31     0.337765      1.00800 ; qtot -1.695
    32   h1     1   MOL    H4   32     0.112871      1.00800 ; qtot -1.582
    33   h1     1   MOL    H5   33     0.112871      1.00800 ; qtot -1.469
    34   hc     1   MOL    H6   34     0.073223      1.00800 ; qtot -1.396
    35   hc     1   MOL    H7   35     0.073223      1.00800 ; qtot -1.323
    36   h1     1   MOL    H8   36     0.084861      1.00800 ; qtot -1.238
    37   h1     1   MOL    H9   37     0.084861      1.00800 ; qtot -1.153
    38   hx     1   MOL   H10   38     0.128900      1.00800 ; qtot -1.024
    39   hx     1   MOL   H11   39     0.128900      1.00800 ; qtot -0.895
    40   hx     1   MOL   H12   40     0.128900      1.00800 ; qtot -0.766
    41   hx     1   MOL   H13   41     0.128900      1.00800 ; qtot -0.637
    42   h1     1   MOL   H14   42     0.084861      1.00800 ; qtot -0.552
    43   h1     1   MOL   H15   43     0.084861      1.00800 ; qtot -0.467
    44   h1     1   MOL   H16   44     0.112871      1.00800 ; qtot -0.355
    45   h1     1   MOL   H17   45     0.112871      1.00800 ; qtot -0.242
    46   hn     1   MOL   H18   46     0.308493      1.00800 ; qtot 0.067
    47   hx     1   MOL   H19   47     0.151537      1.00800 ; qtot 0.218
    48   hx     1   MOL   H20   48     0.151537      1.00800 ; qtot 0.370
    49   hx     1   MOL   H21   49     0.151537      1.00800 ; qtot 0.521
    50   hc     1   MOL   H22   50     0.087096      1.00800 ; qtot 0.608
    51   hc     1   MOL   H23   51     0.087096      1.00800 ; qtot 0.696
    52   hc     1   MOL   H24   52     0.087096      1.00800 ; qtot 0.783
    53   hc     1   MOL   H25   53     0.072448      1.00800 ; qtot 0.855
    54   hc     1   MOL   H26   54     0.072448      1.00800 ; qtot 0.928
    55   hc     1   MOL   H27   55     0.072448      1.00800 ; qtot 1.000

[ bonds ]
;   ai     aj funct   r             k
     1      2   1    1.5002e-01    2.1350e+05 ;     C1 - C2    
     1     53   1    1.0962e-01    2.8891e+05 ;     C1 - H25   
     1     54   1    1.0962e-01    2.8891e+05 ;     C1 - H26   
     1     55   1    1.0962e-01    2.8891e+05 ;     C1 - H27   
     2      3   1    1.4274e-01    2.6947e+05 ;     C2 - C3    
     2     28   1    1.3158e-01    3.5122e+05 ;     C2 - N8    
     3      4   1    1.3730e-01    3.2321e+05 ;     C3 - C4    
     3     29   1    1.0838e-01    3.0470e+05 ;     C3 - H1    
     4      8   1    1.3711e-01    2.8968e+05 ;     C4 - N1    
     4     27   1    1.7622e-01    1.8956e+05 ;     C4 - S1    
     5      8   1    1.3944e-01    2.6771e+05 ;     C5 - N1    
     5     17   1    1.3392e-01    3.2341e+05 ;     C5 - N2    
     5     26   1    1.3392e-01    3.2341e+05 ;     C5 - N7    
     6      7   1    1.3986e-01    2.9644e+05 ;     C6 - C7    
     6     17   1    1.3392e-01    3.2341e+05 ;     C6 - N2    
     6     30   1    1.0885e-01    2.9859e+05 ;     C6 - H2    
     7      9   1    1.5147e-01    2.0410e+05 ;     C7 - C8    
     7     10   1    1.3986e-01    2.9644e+05 ;     C7 - C9    
     8     31   1    1.0137e-01    3.9538e+05 ;     N1 - H3    
     9     50   1    1.0962e-01    2.8891e+05 ;     C8 - H22   
     9     51   1    1.0962e-01    2.8891e+05 ;     C8 - H23   
     9     52   1    1.0962e-01    2.8891e+05 ;     C8 - H24   
    10     22   1    1.3749e-01    2.8594e+05 ;     C9 - N3    
    10     26   1    1.3392e-01    3.2341e+05 ;     C9 - N7    
    11     12   1    1.5578e-01    1.7898e+05 ;    C10 - C11   
    11     22   1    1.4783e-01    2.0366e+05 ;    C10 - N3    
    11     32   1    1.0946e-01    2.9088e+05 ;    C10 - H4    
    11     33   1    1.0946e-01    2.9088e+05 ;    C10 - H5    
    12     13   1    1.5303e-01    1.9455e+05 ;    C11 - C12   
    12     21   1    1.5578e-01    1.7898e+05 ;    C11 - C19   
    12     24   1    1.4658e-01    2.1192e+05 ;    C11 - N5    
    13     14   1    1.4656e-01    2.3814e+05 ;    C12 - C13   
    13     34   1    1.0962e-01    2.8891e+05 ;    C12 - H6    
    13     35   1    1.0962e-01    2.8891e+05 ;    C12 - H7    
    14     23   1    1.1619e-01    6.2865e+05 ;    C13 - N4    
    15     16   1    1.5384e-01    1.8979e+05 ;    C14 - C15   
    15     24   1    1.4657e-01    2.1199e+05 ;    C14 - N5    
    15     36   1    1.0984e-01    2.8620e+05 ;    C14 - H8    
    15     37   1    1.0984e-01    2.8620e+05 ;    C14 - H9    
    16     25   1    1.5156e-01    1.8124e+05 ;    C15 - N6    
    16     38   1    1.0931e-01    2.9275e+05 ;    C15 - H10   
    16     39   1    1.0931e-01    2.9275e+05 ;    C15 - H11   
    18     25   1    1.5109e-01    1.8390e+05 ;    C16 - N6    
    18     47   1    1.0911e-01    2.9527e+05 ;    C16 - H19   
    18     48   1    1.0911e-01    2.9527e+05 ;    C16 - H20   
    18     49   1    1.0911e-01    2.9527e+05 ;    C16 - H21   
    19     20   1    1.5384e-01    1.8979e+05 ;    C17 - C18   
    19     25   1    1.5156e-01    1.8124e+05 ;    C17 - N6    
    19     40   1    1.0931e-01    2.9275e+05 ;    C17 - H12   
    19     41   1    1.0931e-01    2.9275e+05 ;    C17 - H13   
    20     24   1    1.4657e-01    2.1199e+05 ;    C18 - N5    
    20     42   1    1.0984e-01    2.8620e+05 ;    C18 - H14   
    20     43   1    1.0984e-01    2.8620e+05 ;    C18 - H15   
    21     22   1    1.4783e-01    2.0366e+05 ;    C19 - N3    
    21     44   1    1.0946e-01    2.9088e+05 ;    C19 - H16   
    21     45   1    1.0946e-01    2.9088e+05 ;    C19 - H17   
    25     46   1    1.0338e-01    3.6067e+05 ;     N6 - H18   
    27     28   1    1.6659e-01    2.7044e+05 ;     S1 - N8    

[ pairs ]
;   ai     aj    funct
     1      4      1 ;     C1 - C4    
     1     27      1 ;     C1 - S1    
     1     29      1 ;     C1 - H1    
     2      8      1 ;     C2 - N1    
     3      5      1 ;     C3 - C5    
     3     31      1 ;     C3 - H3    
     4     17      1 ;     C4 - N2    
     4     26      1 ;     C4 - N7    
     5      7      1 ;     C5 - C7    
     5     22      1 ;     C5 - N3    
     5     27      1 ;     C5 - S1    
     5     30      1 ;     C5 - H2    
     6      8      1 ;     C6 - N1    
     6     22      1 ;     C6 - N3    
     6     26      1 ;     C6 - N7    
     6     50      1 ;     C6 - H22   
     6     51      1 ;     C6 - H23   
     6     52      1 ;     C6 - H24   
     7     11      1 ;     C7 - C10   
     7     21      1 ;     C7 - C19   
     8     10      1 ;     N1 - C9    
     8     28      1 ;     N1 - N8    
     8     29      1 ;     N1 - H1    
     9     17      1 ;     C8 - N2    
     9     22      1 ;     C8 - N3    
     9     26      1 ;     C8 - N7    
     9     30      1 ;     C8 - H2    
    10     12      1 ;     C9 - C11   
    10     17      1 ;     C9 - N2    
    10     30      1 ;     C9 - H2    
    10     32      1 ;     C9 - H4    
    10     33      1 ;     C9 - H5    
    10     44      1 ;     C9 - H16   
    10     45      1 ;     C9 - H17   
    10     50      1 ;     C9 - H22   
    10     51      1 ;     C9 - H23   
    10     52      1 ;     C9 - H24   
    11     14      1 ;    C10 - C13   
    11     15      1 ;    C10 - C14   
    11     20      1 ;    C10 - C18   
    11     26      1 ;    C10 - N7    
    11     34      1 ;    C10 - H6    
    11     35      1 ;    C10 - H7    
    11     44      1 ;    C10 - H16   
    11     45      1 ;    C10 - H17   
    12     16      1 ;    C11 - C15   
    12     19      1 ;    C11 - C17   
    12     23      1 ;    C11 - N4    
    12     36      1 ;    C11 - H8    
    12     37      1 ;    C11 - H9    
    12     42      1 ;    C11 - H14   
    12     43      1 ;    C11 - H15   
    13     15      1 ;    C12 - C14   
    13     20      1 ;    C12 - C18   
    13     22      1 ;    C12 - N3    
    13     32      1 ;    C12 - H4    
    13     33      1 ;    C12 - H5    
    13     44      1 ;    C12 - H16   
    13     45      1 ;    C12 - H17   
    14     21      1 ;    C13 - C19   
    14     24      1 ;    C13 - N5    
    15     18      1 ;    C14 - C16   
    15     19      1 ;    C14 - C17   
    15     21      1 ;    C14 - C19   
    15     42      1 ;    C14 - H14   
    15     43      1 ;    C14 - H15   
    15     46      1 ;    C14 - H18   
    16     20      1 ;    C15 - C18   
    16     40      1 ;    C15 - H12   
    16     41      1 ;    C15 - H13   
    16     47      1 ;    C15 - H19   
    16     48      1 ;    C15 - H20   
    16     49      1 ;    C15 - H21   
    17     31      1 ;     N2 - H3    
    18     20      1 ;    C16 - C18   
    18     38      1 ;    C16 - H10   
    18     39      1 ;    C16 - H11   
    18     40      1 ;    C16 - H12   
    18     41      1 ;    C16 - H13   
    19     38      1 ;    C17 - H10   
    19     39      1 ;    C17 - H11   
    19     47      1 ;    C17 - H19   
    19     48      1 ;    C17 - H20   
    19     49      1 ;    C17 - H21   
    20     21      1 ;    C18 - C19   
    20     36      1 ;    C18 - H8    
    20     37      1 ;    C18 - H9    
    20     46      1 ;    C18 - H18   
    21     26      1 ;    C19 - N7    
    21     32      1 ;    C19 - H4    
    21     33      1 ;    C19 - H5    
    21     34      1 ;    C19 - H6    
    21     35      1 ;    C19 - H7    
    22     24      1 ;     N3 - N5    
    23     34      1 ;     N4 - H6    
    23     35      1 ;     N4 - H7    
    24     25      1 ;     N5 - N6    
    24     32      1 ;     N5 - H4    
    24     33      1 ;     N5 - H5    
    24     34      1 ;     N5 - H6    
    24     35      1 ;     N5 - H7    
    24     38      1 ;     N5 - H10   
    24     39      1 ;     N5 - H11   
    24     40      1 ;     N5 - H12   
    24     41      1 ;     N5 - H13   
    24     44      1 ;     N5 - H16   
    24     45      1 ;     N5 - H17   
    25     36      1 ;     N6 - H8    
    25     37      1 ;     N6 - H9    
    25     42      1 ;     N6 - H14   
    25     43      1 ;     N6 - H15   
    26     31      1 ;     N7 - H3    
    27     29      1 ;     S1 - H1    
    27     31      1 ;     S1 - H3    
    28     29      1 ;     N8 - H1    
    36     38      1 ;     H8 - H10   
    36     39      1 ;     H8 - H11   
    37     38      1 ;     H9 - H10   
    37     39      1 ;     H9 - H11   
    38     46      1 ;    H10 - H18   
    39     46      1 ;    H11 - H18   
    40     42      1 ;    H12 - H14   
    40     43      1 ;    H12 - H15   
    40     46      1 ;    H12 - H18   
    41     42      1 ;    H13 - H14   
    41     43      1 ;    H13 - H15   
    41     46      1 ;    H13 - H18   
    46     47      1 ;    H18 - H19   
    46     48      1 ;    H18 - H20   
    46     49      1 ;    H18 - H21   
    53      3      1 ;    H25 - C3    
    53     28      1 ;    H25 - N8    
    54      3      1 ;    H26 - C3    
    54     28      1 ;    H26 - N8    
    55      3      1 ;    H27 - C3    
    55     28      1 ;    H27 - N8    

[ angles ]
;   ai     aj     ak    funct   theta         cth
     1      2      3      1    1.2276e+02    5.0275e+02 ;     C1 - C2     - C3    
     1      2     28      1    1.2387e+02    5.4836e+02 ;     C1 - C2     - N8    
     2      1     53      1    1.1036e+02    3.6853e+02 ;     C2 - C1     - H25   
     2      1     54      1    1.1036e+02    3.6853e+02 ;     C2 - C1     - H26   
     2      1     55      1    1.1036e+02    3.6853e+02 ;     C2 - C1     - H27   
     2      3      4      1    1.1919e+02    5.3363e+02 ;     C2 - C3     - C4    
     2      3     29      1    1.1971e+02    3.6987e+02 ;     C2 - C3     - H1    
     2     28     27      1    1.0780e+02    7.3655e+02 ;     C2 - N8     - S1    
     3      2     28      1    1.2605e+02    5.6091e+02 ;     C3 - C2     - N8    
     3      4      8      1    1.2269e+02    5.7028e+02 ;     C3 - C4     - N1    
     3      4     27      1    1.1335e+02    5.5095e+02 ;     C3 - C4     - S1    
     4      3     29      1    1.2140e+02    3.7907e+02 ;     C4 - C3     - H1    
     4      8      5      1    1.2970e+02    6.4065e+02 ;     C4 - N1     - C5    
     4      8     31      1    1.1384e+02    4.8995e+02 ;     C4 - N1     - H3    
     4     27     28      1    9.4110e+01    9.0818e+02 ;     C4 - S1     - N8    
     5      8     31      1    1.1473e+02    4.8083e+02 ;     C5 - N1     - H3    
     5     17      6      1    1.1724e+02    6.9580e+02 ;     C5 - N2     - C6    
     5     26     10      1    1.1724e+02    6.9580e+02 ;     C5 - N7     - C9    
     6      7      9      1    1.2083e+02    5.0827e+02 ;     C6 - C7     - C8    
     6      7     10      1    1.2002e+02    5.3279e+02 ;     C6 - C7     - C9    
     7      6     17      1    1.2294e+02    5.7045e+02 ;     C7 - C6     - N2    
     7      6     30      1    1.2032e+02    3.7489e+02 ;     C7 - C6     - H2    
     7      9     50      1    1.1063e+02    3.6493e+02 ;     C7 - C8     - H22   
     7      9     51      1    1.1063e+02    3.6493e+02 ;     C7 - C8     - H23   
     7      9     52      1    1.1063e+02    3.6493e+02 ;     C7 - C8     - H24   
     7     10     22      1    1.2130e+02    5.6735e+02 ;     C7 - C9     - N3    
     7     10     26      1    1.2294e+02    5.7045e+02 ;     C7 - C9     - N7    
     8      4     27      1    1.2112e+02    5.6593e+02 ;     N1 - C4     - S1    
     8      5     17      1    1.1717e+02    6.2132e+02 ;     N1 - C5     - N2    
     8      5     26      1    1.1717e+02    6.2132e+02 ;     N1 - C5     - N7    
     9      7     10      1    1.2083e+02    5.0827e+02 ;     C8 - C7     - C9    
    10     22     11      1    1.2719e+02    6.2542e+02 ;     C9 - N3     - C10   
    10     22     21      1    1.2719e+02    6.2542e+02 ;     C9 - N3     - C19   
    11     12     13      1    1.1830e+02    4.8601e+02 ;    C10 - C11    - C12   
    11     12     21      1    8.8440e+01    5.5731e+02 ;    C10 - C11    - C19   
    11     12     24      1    1.1585e+02    5.3162e+02 ;    C10 - C11    - N5    
    11     22     21      1    9.3310e+01    7.0659e+02 ;    C10 - N3     - C19   
    12     11     22      1    8.8520e+01    6.0593e+02 ;    C11 - C10    - N3    
    12     11     32      1    1.1317e+02    3.5179e+02 ;    C11 - C10    - H4    
    12     11     33      1    1.1317e+02    3.5179e+02 ;    C11 - C10    - H5    
    12     13     14      1    1.1029e+02    5.5898e+02 ;    C11 - C12    - C13   
    12     13     34      1    1.1049e+02    3.6183e+02 ;    C11 - C12    - H6    
    12     13     35      1    1.1049e+02    3.6183e+02 ;    C11 - C12    - H7    
    12     21     22      1    8.8520e+01    6.0593e+02 ;    C11 - C19    - N3    
    12     21     44      1    1.1317e+02    3.5179e+02 ;    C11 - C19    - H16   
    12     21     45      1    1.1317e+02    3.5179e+02 ;    C11 - C19    - H17   
    12     24     15      1    1.1171e+02    6.5128e+02 ;    C11 - N5     - C14   
    12     24     20      1    1.1171e+02    6.5128e+02 ;    C11 - N5     - C18   
    13     12     21      1    1.1830e+02    4.8601e+02 ;    C12 - C11    - C19   
    13     12     24      1    1.1053e+02    5.4978e+02 ;    C12 - C11    - N5    
    13     14     23      1    1.7866e+02    4.8049e+02 ;    C12 - C13    - N4    
    14     13     34      1    1.0945e+02    3.7765e+02 ;    C13 - C12    - H6    
    14     13     35      1    1.0945e+02    3.7765e+02 ;    C13 - C12    - H7    
    15     16     25      1    1.1106e+02    5.3848e+02 ;    C14 - C15    - N6    
    15     16     38      1    1.1118e+02    3.5907e+02 ;    C14 - C15    - H10   
    15     16     39      1    1.1118e+02    3.5907e+02 ;    C14 - C15    - H11   
    15     24     20      1    1.1070e+02    6.5429e+02 ;    C14 - N5     - C18   
    16     15     24      1    1.1084e+02    5.4743e+02 ;    C15 - C14    - N5    
    16     15     36      1    1.0918e+02    3.6217e+02 ;    C15 - C14    - H8    
    16     15     37      1    1.0918e+02    3.6217e+02 ;    C15 - C14    - H9    
    16     25     18      1    1.1268e+02    6.2810e+02 ;    C15 - N6     - C16   
    16     25     19      1    1.1089e+02    6.3220e+02 ;    C15 - N6     - C17   
    16     25     46      1    1.0714e+02    4.6007e+02 ;    C15 - N6     - H18   
    17      5     26      1    1.2730e+02    6.0886e+02 ;     N2 - C5     - N7    
    17      6     30      1    1.1602e+02    4.1924e+02 ;     N2 - C6     - H2    
    18     25     19      1    1.1268e+02    6.2810e+02 ;    C16 - N6     - C17   
    18     25     46      1    1.0658e+02    4.6267e+02 ;    C16 - N6     - H18   
    19     20     24      1    1.1084e+02    5.4743e+02 ;    C17 - C18    - N5    
    19     20     42      1    1.0918e+02    3.6217e+02 ;    C17 - C18    - H14   
    19     20     43      1    1.0918e+02    3.6217e+02 ;    C17 - C18    - H15   
    19     25     46      1    1.0714e+02    4.6007e+02 ;    C17 - N6     - H18   
    20     19     25      1    1.1106e+02    5.3848e+02 ;    C18 - C17    - N6    
    20     19     40      1    1.1118e+02    3.5907e+02 ;    C18 - C17    - H12   
    20     19     41      1    1.1118e+02    3.5907e+02 ;    C18 - C17    - H13   
    21     12     24      1    1.1585e+02    5.3162e+02 ;    C19 - C11    - N5    
    22     10     26      1    1.1911e+02    6.2099e+02 ;     N3 - C9     - N7    
    22     11     32      1    1.1390e+02    3.9012e+02 ;     N3 - C10    - H4    
    22     11     33      1    1.1390e+02    3.9012e+02 ;     N3 - C10    - H5    
    22     21     44      1    1.1390e+02    3.9012e+02 ;     N3 - C19    - H16   
    22     21     45      1    1.1390e+02    3.9012e+02 ;     N3 - C19    - H17   
    24     15     36      1    1.0963e+02    4.0041e+02 ;     N5 - C14    - H8    
    24     15     37      1    1.0963e+02    4.0041e+02 ;     N5 - C14    - H9    
    24     20     42      1    1.0963e+02    4.0041e+02 ;     N5 - C18    - H14   
    24     20     43      1    1.0963e+02    4.0041e+02 ;     N5 - C18    - H15   
    25     16     38      1    1.0685e+02    3.9413e+02 ;     N6 - C15    - H10   
    25     16     39      1    1.0685e+02    3.9413e+02 ;     N6 - C15    - H11   
    25     18     47      1    1.0849e+02    3.9229e+02 ;     N6 - C16    - H19   
    25     18     48      1    1.0849e+02    3.9229e+02 ;     N6 - C16    - H20   
    25     18     49      1    1.0849e+02    3.9229e+02 ;     N6 - C16    - H21   
    25     19     40      1    1.0685e+02    3.9413e+02 ;     N6 - C17    - H12   
    25     19     41      1    1.0685e+02    3.9413e+02 ;     N6 - C17    - H13   
    32     11     33      1    1.0944e+02    2.9765e+02 ;     H4 - C10    - H5    
    34     13     35      1    1.0773e+02    2.9957e+02 ;     H6 - C12    - H7    
    36     15     37      1    1.0750e+02    2.9932e+02 ;     H8 - C14    - H9    
    38     16     39      1    1.0853e+02    2.9932e+02 ;    H10 - C15    - H11   
    40     19     41      1    1.0853e+02    2.9932e+02 ;    H12 - C17    - H13   
    42     20     43      1    1.0750e+02    2.9932e+02 ;    H14 - C18    - H15   
    44     21     45      1    1.0944e+02    2.9765e+02 ;    H16 - C19    - H17   
    47     18     48      1    1.0979e+02    2.9815e+02 ;    H19 - C16    - H20   
    47     18     49      1    1.0979e+02    2.9815e+02 ;    H19 - C16    - H21   
    48     18     49      1    1.0979e+02    2.9815e+02 ;    H20 - C16    - H21   
    50      9     51      1    1.0773e+02    2.9957e+02 ;    H22 - C8     - H23   
    50      9     52      1    1.0773e+02    2.9957e+02 ;    H22 - C8     - H24   
    51      9     52      1    1.0773e+02    2.9957e+02 ;    H23 - C8     - H24   
    53      1     54      1    1.0773e+02    2.9957e+02 ;    H25 - C1     - H26   
    53      1     55      1    1.0773e+02    2.9957e+02 ;    H25 - C1     - H27   
    54      1     55      1    1.0773e+02    2.9957e+02 ;    H26 - C1     - H27   

[ dihedrals ] ; propers
; for gromacs 4.5 or higher, using funct 9
;    i      j      k      l   func   phase     kd      pn
     1      2      3      4      9   180.00  16.73600   2 ;     C1-    C2-    C3-    C4
     1      2      3     29      9   180.00  16.73600   2 ;     C1-    C2-    C3-    H1
     1      2     28     27      9   180.00  19.87400   2 ;     C1-    C2-    N8-    S1
     2      3      4      8      9   180.00  16.73600   2 ;     C2-    C3-    C4-    N1
     2      3      4     27      9   180.00  16.73600   2 ;     C2-    C3-    C4-    S1
     2     28     27      4      9   180.00  20.08320   2 ;     C2-    N8-    S1-    C4
     3      2     28     27      9   180.00  19.87400   2 ;     C3-    C2-    N8-    S1
     3      4      8      5      9   180.00   4.39320   2 ;     C3-    C4-    N1-    C5
     3      4      8     31      9   180.00   4.39320   2 ;     C3-    C4-    N1-    H3
     3      4     27     28      9   180.00   4.60240   2 ;     C3-    C4-    S1-    N8
     4      3      2     28      9   180.00  16.73600   2 ;     C4-    C3-    C2-    N8
     4      8      5     17      9   180.00   4.39320   2 ;     C4-    N1-    C5-    N2
     4      8      5     26      9   180.00   4.39320   2 ;     C4-    N1-    C5-    N7
     5      8      4     27      9   180.00   4.39320   2 ;     C5-    N1-    C4-    S1
     5     17      6      7      9   180.00  20.08320   2 ;     C5-    N2-    C6-    C7
     5     17      6     30      9   180.00  20.08320   2 ;     C5-    N2-    C6-    H2
     5     26     10      7      9   180.00  20.08320   2 ;     C5-    N7-    C9-    C7
     5     26     10     22      9   180.00  20.08320   2 ;     C5-    N7-    C9-    N3
     6      7      9     50      9     0.00   0.00000   0 ;     C6-    C7-    C8-   H22
     6      7      9     51      9     0.00   0.00000   0 ;     C6-    C7-    C8-   H23
     6      7      9     52      9     0.00   0.00000   0 ;     C6-    C7-    C8-   H24
     6      7     10     22      9   180.00  15.16700   2 ;     C6-    C7-    C9-    N3
     6      7     10     26      9   180.00  15.16700   2 ;     C6-    C7-    C9-    N7
     6     17      5      8      9   180.00  20.08320   2 ;     C6-    N2-    C5-    N1
     6     17      5     26      9   180.00  20.08320   2 ;     C6-    N2-    C5-    N7
     7     10     22     11      9   180.00   4.39320   2 ;     C7-    C9-    N3-   C10
     7     10     22     21      9   180.00   4.39320   2 ;     C7-    C9-    N3-   C19
     8      4      3     29      9   180.00  16.73600   2 ;     N1-    C4-    C3-    H1
     8      4     27     28      9   180.00   4.60240   2 ;     N1-    C4-    S1-    N8
     8      5     26     10      9   180.00  20.08320   2 ;     N1-    C5-    N7-    C9
     9      7      6     17      9   180.00  15.16700   2 ;     C8-    C7-    C6-    N2
     9      7      6     30      9   180.00  15.16700   2 ;     C8-    C7-    C6-    H2
     9      7     10     22      9   180.00  15.16700   2 ;     C8-    C7-    C9-    N3
     9      7     10     26      9   180.00  15.16700   2 ;     C8-    C7-    C9-    N7
    10      7      6     17      9   180.00  15.16700   2 ;     C9-    C7-    C6-    N2
    10      7      6     30      9   180.00  15.16700   2 ;     C9-    C7-    C6-    H2
    10      7      9     50      9     0.00   0.00000   0 ;     C9-    C7-    C8-   H22
    10      7      9     51      9     0.00   0.00000   0 ;     C9-    C7-    C8-   H23
    10      7      9     52      9     0.00   0.00000   0 ;     C9-    C7-    C8-   H24
    10     22     11     12      9     0.00   0.00000   0 ;     C9-    N3-   C10-   C11
    10     22     11     32      9     0.00   1.38909   2 ;     C9-    N3-   C10-    H4
    10     22     11     33      9     0.00   1.38909   2 ;     C9-    N3-   C10-    H5
    10     22     21     12      9     0.00   0.00000   0 ;     C9-    N3-   C19-   C11
    10     22     21     44      9     0.00   1.38909   2 ;     C9-    N3-   C19-   H16
    10     22     21     45      9     0.00   1.38909   2 ;     C9-    N3-   C19-   H17
    10     26      5     17      9   180.00  20.08320   2 ;     C9-    N7-    C5-    N2
    11     12     13     14      9     0.00   0.65084   3 ;    C10-   C11-   C12-   C13
    11     12     13     34      9     0.00   0.54392   3 ;    C10-   C11-   C12-    H6
    11     12     13     35      9     0.00   0.54392   3 ;    C10-   C11-   C12-    H7
    11     12     21     22      9     0.00   0.65084   3 ;    C10-   C11-   C19-    N3
    11     12     21     44      9     0.00   0.65084   3 ;    C10-   C11-   C19-   H16
    11     12     21     45      9     0.00   0.65084   3 ;    C10-   C11-   C19-   H17
    11     12     24     15      9     0.00   3.05432   3 ;    C10-   C11-    N5-   C14
    11     12     24     20      9     0.00   3.05432   3 ;    C10-   C11-    N5-   C18
    11     22     10     26      9   180.00   4.39320   2 ;    C10-    N3-    C9-    N7
    11     22     21     12      9     0.00   0.00000   0 ;    C10-    N3-   C19-   C11
    11     22     21     44      9     0.00   0.00000   0 ;    C10-    N3-   C19-   H16
    11     22     21     45      9     0.00   0.00000   0 ;    C10-    N3-   C19-   H17
    12     11     22     21      9     0.00   0.00000   0 ;    C11-   C10-    N3-   C19
    12     13     14     23      9   180.00   0.00000   2 ;    C11-   C12-   C13-    N4
    12     24     15     16      9     0.00   1.25520   3 ;    C11-    N5-   C14-   C15
    12     24     15     36      9     0.00   1.25520   3 ;    C11-    N5-   C14-    H8
    12     24     15     37      9     0.00   1.25520   3 ;    C11-    N5-   C14-    H9
    12     24     20     19      9     0.00   1.25520   3 ;    C11-    N5-   C18-   C17
    12     24     20     42      9     0.00   1.25520   3 ;    C11-    N5-   C18-   H14
    12     24     20     43      9     0.00   1.25520   3 ;    C11-    N5-   C18-   H15
    13     12     11     22      9     0.00   0.65084   3 ;    C12-   C11-   C10-    N3
    13     12     11     32      9     0.00   0.65084   3 ;    C12-   C11-   C10-    H4
    13     12     11     33      9     0.00   0.65084   3 ;    C12-   C11-   C10-    H5
    13     12     21     22      9     0.00   0.65084   3 ;    C12-   C11-   C19-    N3
    13     12     21     44      9     0.00   0.65084   3 ;    C12-   C11-   C19-   H16
    13     12     21     45      9     0.00   0.65084   3 ;    C12-   C11-   C19-   H17
    13     12     24     15      9     0.00   3.05432   3 ;    C12-   C11-    N5-   C14
    13     12     24     20      9     0.00   3.05432   3 ;    C12-   C11-    N5-   C18
    14     13     12     21      9     0.00   0.65084   3 ;    C13-   C12-   C11-   C19
    14     13     12     24      9     0.00   0.65084   3 ;    C13-   C12-   C11-    N5
    15     16     25     18      9     0.00   0.65270   3 ;    C14-   C15-    N6-   C16
    15     16     25     19      9     0.00   0.65270   3 ;    C14-   C15-    N6-   C17
    15     16     25     46      9     0.00   0.65084   3 ;    C14-   C15-    N6-   H18
    15     24     12     21      9     0.00   3.05432   3 ;    C14-    N5-   C11-   C19
    15     24     20     19      9     0.00   3.05432   3 ;    C14-    N5-   C18-   C17
    15     24     20     42      9     0.00   0.94140   3 ;    C14-    N5-   C18-   H14
    15     24     20     43      9     0.00   0.94140   3 ;    C14-    N5-   C18-   H15
    16     15     24     20      9     0.00   3.05432   3 ;    C15-   C14-    N5-   C18
    16     25     18     47      9     0.00   0.65084   3 ;    C15-    N6-   C16-   H19
    16     25     18     48      9     0.00   0.65084   3 ;    C15-    N6-   C16-   H20
    16     25     18     49      9     0.00   0.65084   3 ;    C15-    N6-   C16-   H21
    16     25     19     20      9     0.00   0.65270   3 ;    C15-    N6-   C17-   C18
    16     25     19     40      9     0.00   0.65084   3 ;    C15-    N6-   C17-   H12
    16     25     19     41      9     0.00   0.65084   3 ;    C15-    N6-   C17-   H13
    17      5      8     31      9   180.00   4.39320   2 ;     N2-    C5-    N1-    H3
    18     25     16     38      9     0.00   0.65084   3 ;    C16-    N6-   C15-   H10
    18     25     16     39      9     0.00   0.65084   3 ;    C16-    N6-   C15-   H11
    18     25     19     20      9     0.00   0.65270   3 ;    C16-    N6-   C17-   C18
    18     25     19     40      9     0.00   0.65084   3 ;    C16-    N6-   C17-   H12
    18     25     19     41      9     0.00   0.65084   3 ;    C16-    N6-   C17-   H13
    19     25     16     38      9     0.00   0.65084   3 ;    C17-    N6-   C15-   H10
    19     25     16     39      9     0.00   0.65084   3 ;    C17-    N6-   C15-   H11
    19     25     18     47      9     0.00   0.65084   3 ;    C17-    N6-   C16-   H19
    19     25     18     48      9     0.00   0.65084   3 ;    C17-    N6-   C16-   H20
    19     25     18     49      9     0.00   0.65084   3 ;    C17-    N6-   C16-   H21
    20     19     25     46      9     0.00   0.65084   3 ;    C18-   C17-    N6-   H18
    20     24     12     21      9     0.00   3.05432   3 ;    C18-    N5-   C11-   C19
    20     24     15     36      9     0.00   0.94140   3 ;    C18-    N5-   C14-    H8
    20     24     15     37      9     0.00   0.94140   3 ;    C18-    N5-   C14-    H9
    21     12     11     22      9     0.00   0.65084   3 ;    C19-   C11-   C10-    N3
    21     12     11     32      9     0.00   0.65084   3 ;    C19-   C11-   C10-    H4
    21     12     11     33      9     0.00   0.65084   3 ;    C19-   C11-   C10-    H5
    21     12     13     34      9     0.00   0.54392   3 ;    C19-   C11-   C12-    H6
    21     12     13     35      9     0.00   0.54392   3 ;    C19-   C11-   C12-    H7
    21     22     10     26      9   180.00   4.39320   2 ;    C19-    N3-    C9-    N7
    21     22     11     32      9     0.00   0.00000   0 ;    C19-    N3-   C10-    H4
    21     22     11     33      9     0.00   0.00000   0 ;    C19-    N3-   C10-    H5
    22     11     12     24      9     0.00   0.65084   3 ;     N3-   C10-   C11-    N5
    22     21     12     24      9     0.00   0.65084   3 ;     N3-   C19-   C11-    N5
    23     14     13     34      9   180.00   0.00000   2 ;     N4-   C13-   C12-    H6
    23     14     13     35      9   180.00   0.00000   2 ;     N4-   C13-   C12-    H7
    24     12     11     32      9     0.00   0.65084   3 ;     N5-   C11-   C10-    H4
    24     12     11     33      9     0.00   0.65084   3 ;     N5-   C11-   C10-    H5
    24     12     13     34      9     0.00   0.41840   3 ;     N5-   C11-   C12-    H6
    24     12     13     35      9     0.00   0.41840   3 ;     N5-   C11-   C12-    H7
    24     12     21     44      9     0.00   0.65084   3 ;     N5-   C11-   C19-   H16
    24     12     21     45      9     0.00   0.65084   3 ;     N5-   C11-   C19-   H17
    24     15     16     25      9     0.00   0.65084   3 ;     N5-   C14-   C15-    N6
    24     15     16     38      9     0.00   0.65084   3 ;     N5-   C14-   C15-   H10
    24     15     16     39      9     0.00   0.65084   3 ;     N5-   C14-   C15-   H11
    24     20     19     25      9     0.00   0.65084   3 ;     N5-   C18-   C17-    N6
    24     20     19     40      9     0.00   0.65084   3 ;     N5-   C18-   C17-   H12
    24     20     19     41      9     0.00   0.65084   3 ;     N5-   C18-   C17-   H13
    25     16     15     36      9     0.00   0.65084   3 ;     N6-   C15-   C14-    H8
    25     16     15     37      9     0.00   0.65084   3 ;     N6-   C15-   C14-    H9
    25     19     20     42      9     0.00   0.65084   3 ;     N6-   C17-   C18-   H14
    25     19     20     43      9     0.00   0.65084   3 ;     N6-   C17-   C18-   H15
    26      5      8     31      9   180.00   4.39320   2 ;     N7-    C5-    N1-    H3
    27      4      3     29      9   180.00  16.73600   2 ;     S1-    C4-    C3-    H1
    27      4      8     31      9   180.00   4.39320   2 ;     S1-    C4-    N1-    H3
    28      2      3     29      9   180.00  16.73600   2 ;     N8-    C2-    C3-    H1
    36     15     16     38      9     0.00   0.65084   3 ;     H8-   C14-   C15-   H10
    36     15     16     39      9     0.00   0.65084   3 ;     H8-   C14-   C15-   H11
    37     15     16     38      9     0.00   0.65084   3 ;     H9-   C14-   C15-   H10
    37     15     16     39      9     0.00   0.65084   3 ;     H9-   C14-   C15-   H11
    38     16     25     46      9     0.00   0.45606   3 ;    H10-   C15-    N6-   H18
    39     16     25     46      9     0.00   0.45606   3 ;    H11-   C15-    N6-   H18
    40     19     20     42      9     0.00   0.65084   3 ;    H12-   C17-   C18-   H14
    40     19     20     43      9     0.00   0.65084   3 ;    H12-   C17-   C18-   H15
    40     19     25     46      9     0.00   0.45606   3 ;    H12-   C17-    N6-   H18
    41     19     20     42      9     0.00   0.65084   3 ;    H13-   C17-   C18-   H14
    41     19     20     43      9     0.00   0.65084   3 ;    H13-   C17-   C18-   H15
    41     19     25     46      9     0.00   0.45606   3 ;    H13-   C17-    N6-   H18
    46     25     18     47      9     0.00   0.45606   3 ;    H18-    N6-   C16-   H19
    46     25     18     48      9     0.00   0.45606   3 ;    H18-    N6-   C16-   H20
    46     25     18     49      9     0.00   0.45606   3 ;    H18-    N6-   C16-   H21
    53      1      2      3      9     0.00   0.00000   0 ;    H25-    C1-    C2-    C3
    53      1      2     28      9     0.00   0.00000   0 ;    H25-    C1-    C2-    N8
    54      1      2      3      9     0.00   0.00000   0 ;    H26-    C1-    C2-    C3
    54      1      2     28      9     0.00   0.00000   0 ;    H26-    C1-    C2-    N8
    55      1      2      3      9     0.00   0.00000   0 ;    H27-    C1-    C2-    C3
    55      1      2     28      9     0.00   0.00000   0 ;    H27-    C1-    C2-    N8

[ dihedrals ] ; impropers
; treated as propers in GROMACS to use correct AMBER analytical function
;    i      j      k      l   func   phase     kd      pn
     1      3      2     28      4   180.00   4.60240   2 ;     C1-    C3-    C2-    N8
     2      4      3     29      4   180.00   4.60240   2 ;     C2-    C4-    C3-    H1
     3      8      4     27      4   180.00   4.60240   2 ;     C3-    N1-    C4-    S1
     5      4      8     31      4   180.00   4.60240   2 ;     C5-    C4-    N1-    H3
     6     10      7      9      4   180.00   4.60240   2 ;     C6-    C9-    C7-    C8
     7     26     10     22      4   180.00   4.60240   2 ;     C7-    N7-    C9-    N3
     7     30      6     17      4   180.00   4.60240   2 ;     C7-    H2-    C6-    N2
    10     11     22     21      4   180.00   4.60240   2 ;     C9-   C10-    N3-   C19
    17     26      5      8      4   180.00  43.93200   2 ;     N2-    N7-    C5-    N1

[ system ]
 YT0

[ molecules ]
; Compound        nmols
 YT0              1     
