; OCT_GMX.top created by acpype (v: 2023.10.27) on Mon Nov 17 00:50:55 2025

[ moleculetype ]
;name            nrexcl
 OCT              3

[ atoms ]
;   nr  type  resi  res  atom  cgnr     charge      mass       ; qtot   bond_type
     1   c3     1   OCT    C8    1     0.150600     12.01000 ; qtot 0.151
     2   oh     1   OCT    O9    2    -0.660000     16.00000 ; qtot -0.509
     3   h1     1   OCT   H25    3     0.044200      1.00800 ; qtot -0.465
     4   h1     1   OCT   H26    4     0.044200      1.00800 ; qtot -0.421
     5   ho     1   OCT   H27    5     0.435000      1.00800 ; qtot 0.014
     6   c3     1   OCT    C1    6    -0.093100     12.01000 ; qtot -0.079
     7   hc     1   OCT   H10    7     0.032700      1.00800 ; qtot -0.046
     8   hc     1   OCT   H11    8     0.032700      1.00800 ; qtot -0.014
     9   hc     1   OCT   H12    9     0.032700      1.00800 ; qtot 0.019
    10   c3     1   OCT    C2   10    -0.080400     12.01000 ; qtot -0.061
    11   hc     1   OCT   H13   11     0.038700      1.00800 ; qtot -0.023
    12   hc     1   OCT   H14   12     0.038700      1.00800 ; qtot 0.016
    13   c3     1   OCT    C3   13    -0.079400     12.01000 ; qtot -0.063
    14   hc     1   OCT   H15   14     0.039700      1.00800 ; qtot -0.024
    15   hc     1   OCT   H16   15     0.039700      1.00800 ; qtot 0.016
    16   c3     1   OCT    C4   16    -0.079400     12.01000 ; qtot -0.063
    17   hc     1   OCT   H17   17     0.040200      1.00800 ; qtot -0.023
    18   hc     1   OCT   H18   18     0.040200      1.00800 ; qtot 0.017
    19   c3     1   OCT    C5   19    -0.078400     12.01000 ; qtot -0.061
    20   hc     1   OCT   H19   20     0.040700      1.00800 ; qtot -0.021
    21   hc     1   OCT   H20   21     0.040700      1.00800 ; qtot 0.020
    22   c3     1   OCT    C6   22    -0.076400     12.01000 ; qtot -0.056
    23   hc     1   OCT   H21   23     0.041200      1.00800 ; qtot -0.015
    24   hc     1   OCT   H22   24     0.041200      1.00800 ; qtot 0.026
    25   c3     1   OCT    C7   25    -0.120400     12.01000 ; qtot -0.094
    26   hc     1   OCT   H23   26     0.047200      1.00800 ; qtot -0.047
    27   hc     1   OCT   H24   27     0.047200      1.00800 ; qtot -0.000

[ bonds ]
;   ai     aj funct   r             k
     1      2   1    1.4242e-01    2.3861e+05 ;     C8 - O9    
     1      3   1    1.0969e-01    2.8804e+05 ;     C8 - H25   
     1      4   1    1.0969e-01    2.8804e+05 ;     C8 - H26   
     1     25   1    1.5354e-01    1.9154e+05 ;     C8 - C7    
     2      5   1    9.7250e-02    4.4811e+05 ;     O9 - H27   
     6      7   1    1.0962e-01    2.8891e+05 ;     C1 - H10   
     6      8   1    1.0962e-01    2.8891e+05 ;     C1 - H11   
     6      9   1    1.0962e-01    2.8891e+05 ;     C1 - H12   
     6     10   1    1.5354e-01    1.9154e+05 ;     C1 - C2    
    10     11   1    1.0962e-01    2.8891e+05 ;     C2 - H13   
    10     12   1    1.0962e-01    2.8891e+05 ;     C2 - H14   
    10     13   1    1.5354e-01    1.9154e+05 ;     C2 - C3    
    13     14   1    1.0962e-01    2.8891e+05 ;     C3 - H15   
    13     15   1    1.0962e-01    2.8891e+05 ;     C3 - H16   
    13     16   1    1.5354e-01    1.9154e+05 ;     C3 - C4    
    16     17   1    1.0962e-01    2.8891e+05 ;     C4 - H17   
    16     18   1    1.0962e-01    2.8891e+05 ;     C4 - H18   
    16     19   1    1.5354e-01    1.9154e+05 ;     C4 - C5    
    19     20   1    1.0962e-01    2.8891e+05 ;     C5 - H19   
    19     21   1    1.0962e-01    2.8891e+05 ;     C5 - H20   
    19     22   1    1.5354e-01    1.9154e+05 ;     C5 - C6    
    22     23   1    1.0962e-01    2.8891e+05 ;     C6 - H21   
    22     24   1    1.0962e-01    2.8891e+05 ;     C6 - H22   
    22     25   1    1.5354e-01    1.9154e+05 ;     C6 - C7    
    25     26   1    1.0962e-01    2.8891e+05 ;     C7 - H23   
    25     27   1    1.0962e-01    2.8891e+05 ;     C7 - H24   

[ pairs ]
;   ai     aj    funct
     1     19      1 ;     C8 - C5    
     1     23      1 ;     C8 - H21   
     1     24      1 ;     C8 - H22   
     2     22      1 ;     O9 - C6    
     2     26      1 ;     O9 - H23   
     2     27      1 ;     O9 - H24   
     3      5      1 ;    H25 - H27   
     3     22      1 ;    H25 - C6    
     3     26      1 ;    H25 - H23   
     3     27      1 ;    H25 - H24   
     4      5      1 ;    H26 - H27   
     4     22      1 ;    H26 - C6    
     4     26      1 ;    H26 - H23   
     4     27      1 ;    H26 - H24   
     6     14      1 ;     C1 - H15   
     6     15      1 ;     C1 - H16   
     6     16      1 ;     C1 - C4    
     7     11      1 ;    H10 - H13   
     7     12      1 ;    H10 - H14   
     7     13      1 ;    H10 - C3    
     8     11      1 ;    H11 - H13   
     8     12      1 ;    H11 - H14   
     8     13      1 ;    H11 - C3    
     9     11      1 ;    H12 - H13   
     9     12      1 ;    H12 - H14   
     9     13      1 ;    H12 - C3    
    10     17      1 ;     C2 - H17   
    10     18      1 ;     C2 - H18   
    10     19      1 ;     C2 - C5    
    11     14      1 ;    H13 - H15   
    11     15      1 ;    H13 - H16   
    11     16      1 ;    H13 - C4    
    12     14      1 ;    H14 - H15   
    12     15      1 ;    H14 - H16   
    12     16      1 ;    H14 - C4    
    13     20      1 ;     C3 - H19   
    13     21      1 ;     C3 - H20   
    13     22      1 ;     C3 - C6    
    14     17      1 ;    H15 - H17   
    14     18      1 ;    H15 - H18   
    14     19      1 ;    H15 - C5    
    15     17      1 ;    H16 - H17   
    15     18      1 ;    H16 - H18   
    15     19      1 ;    H16 - C5    
    16     23      1 ;     C4 - H21   
    16     24      1 ;     C4 - H22   
    16     25      1 ;     C4 - C7    
    17     20      1 ;    H17 - H19   
    17     21      1 ;    H17 - H20   
    17     22      1 ;    H17 - C6    
    18     20      1 ;    H18 - H19   
    18     21      1 ;    H18 - H20   
    18     22      1 ;    H18 - C6    
    19     26      1 ;     C5 - H23   
    19     27      1 ;     C5 - H24   
    20     23      1 ;    H19 - H21   
    20     24      1 ;    H19 - H22   
    20     25      1 ;    H19 - C7    
    21     23      1 ;    H20 - H21   
    21     24      1 ;    H20 - H22   
    21     25      1 ;    H20 - C7    
    23     26      1 ;    H21 - H23   
    23     27      1 ;    H21 - H24   
    24     26      1 ;    H22 - H23   
    24     27      1 ;    H22 - H24   
    25      5      1 ;     C7 - H27   

[ angles ]
;   ai     aj     ak    funct   theta         cth
     1      2      5      1    1.0739e+02    5.4501e+02 ;     C8 - O9     - H27   
     1     25     22      1    1.1263e+02    5.0099e+02 ;     C8 - C7     - C6    
     1     25     26      1    1.0968e+02    3.6208e+02 ;     C8 - C7     - H23   
     1     25     27      1    1.0968e+02    3.6208e+02 ;     C8 - C7     - H24   
     2      1      3      1    1.1038e+02    4.7103e+02 ;     O9 - C8     - H25   
     2      1      4      1    1.1038e+02    4.7103e+02 ;     O9 - C8     - H26   
     2      1     25      1    1.0966e+02    6.4258e+02 ;     O9 - C8     - C7    
     3      1      4      1    1.0855e+02    2.9824e+02 ;    H25 - C8     - H26   
     3      1     25      1    1.0959e+02    3.6217e+02 ;    H25 - C8     - C7    
     4      1     25      1    1.0959e+02    3.6217e+02 ;    H26 - C8     - C7    
     6     10     11      1    1.0968e+02    3.6208e+02 ;     C1 - C2     - H13   
     6     10     12      1    1.0968e+02    3.6208e+02 ;     C1 - C2     - H14   
     6     10     13      1    1.1263e+02    5.0099e+02 ;     C1 - C2     - C3    
     7      6      8      1    1.0773e+02    2.9957e+02 ;    H10 - C1     - H11   
     7      6      9      1    1.0773e+02    2.9957e+02 ;    H10 - C1     - H12   
     7      6     10      1    1.0968e+02    3.6208e+02 ;    H10 - C1     - C2    
     8      6      9      1    1.0773e+02    2.9957e+02 ;    H11 - C1     - H12   
     8      6     10      1    1.0968e+02    3.6208e+02 ;    H11 - C1     - C2    
     9      6     10      1    1.0968e+02    3.6208e+02 ;    H12 - C1     - C2    
    10     13     14      1    1.0968e+02    3.6208e+02 ;     C2 - C3     - H15   
    10     13     15      1    1.0968e+02    3.6208e+02 ;     C2 - C3     - H16   
    10     13     16      1    1.1263e+02    5.0099e+02 ;     C2 - C3     - C4    
    11     10     12      1    1.0773e+02    2.9957e+02 ;    H13 - C2     - H14   
    11     10     13      1    1.0968e+02    3.6208e+02 ;    H13 - C2     - C3    
    12     10     13      1    1.0968e+02    3.6208e+02 ;    H14 - C2     - C3    
    13     16     17      1    1.0968e+02    3.6208e+02 ;     C3 - C4     - H17   
    13     16     18      1    1.0968e+02    3.6208e+02 ;     C3 - C4     - H18   
    13     16     19      1    1.1263e+02    5.0099e+02 ;     C3 - C4     - C5    
    14     13     15      1    1.0773e+02    2.9957e+02 ;    H15 - C3     - H16   
    14     13     16      1    1.0968e+02    3.6208e+02 ;    H15 - C3     - C4    
    15     13     16      1    1.0968e+02    3.6208e+02 ;    H16 - C3     - C4    
    16     19     20      1    1.0968e+02    3.6208e+02 ;     C4 - C5     - H19   
    16     19     21      1    1.0968e+02    3.6208e+02 ;     C4 - C5     - H20   
    16     19     22      1    1.1263e+02    5.0099e+02 ;     C4 - C5     - C6    
    17     16     18      1    1.0773e+02    2.9957e+02 ;    H17 - C4     - H18   
    17     16     19      1    1.0968e+02    3.6208e+02 ;    H17 - C4     - C5    
    18     16     19      1    1.0968e+02    3.6208e+02 ;    H18 - C4     - C5    
    19     22     23      1    1.0968e+02    3.6208e+02 ;     C5 - C6     - H21   
    19     22     24      1    1.0968e+02    3.6208e+02 ;     C5 - C6     - H22   
    19     22     25      1    1.1263e+02    5.0099e+02 ;     C5 - C6     - C7    
    20     19     21      1    1.0773e+02    2.9957e+02 ;    H19 - C5     - H20   
    20     19     22      1    1.0968e+02    3.6208e+02 ;    H19 - C5     - C6    
    21     19     22      1    1.0968e+02    3.6208e+02 ;    H20 - C5     - C6    
    22     25     26      1    1.0968e+02    3.6208e+02 ;     C6 - C7     - H23   
    22     25     27      1    1.0968e+02    3.6208e+02 ;     C6 - C7     - H24   
    23     22     24      1    1.0773e+02    2.9957e+02 ;    H21 - C6     - H22   
    23     22     25      1    1.0968e+02    3.6208e+02 ;    H21 - C6     - C7    
    24     22     25      1    1.0968e+02    3.6208e+02 ;    H22 - C6     - C7    
    26     25     27      1    1.0773e+02    2.9957e+02 ;    H23 - C7     - H24   

[ dihedrals ] ; propers
; for gromacs 4.5 or higher, using funct 9
;    i      j      k      l   func   phase     kd      pn
     1     25     22     19      9     0.00   2.17568   3 ;     C8-    C7-    C6-    C5
     1     25     22     23      9     0.00   0.54392   3 ;     C8-    C7-    C6-   H21
     1     25     22     24      9     0.00   0.54392   3 ;     C8-    C7-    C6-   H22
     2      1     25     22      9     0.00   0.75312   3 ;     O9-    C8-    C7-    C6
     2      1     25     26      9     0.00   0.37656   3 ;     O9-    C8-    C7-   H23
     2      1     25     27      9     0.00   0.37656   3 ;     O9-    C8-    C7-   H24
     3      1      2      5      9     0.00   0.51463   3 ;    H25-    C8-    O9-   H27
     3      1     25     22      9     0.00   0.65084   3 ;    H25-    C8-    C7-    C6
     3      1     25     26      9     0.00   0.65084   3 ;    H25-    C8-    C7-   H23
     3      1     25     27      9     0.00   0.65084   3 ;    H25-    C8-    C7-   H24
     4      1      2      5      9     0.00   0.51463   3 ;    H26-    C8-    O9-   H27
     4      1     25     22      9     0.00   0.65084   3 ;    H26-    C8-    C7-    C6
     4      1     25     26      9     0.00   0.65084   3 ;    H26-    C8-    C7-   H23
     4      1     25     27      9     0.00   0.65084   3 ;    H26-    C8-    C7-   H24
     6     10     13     14      9     0.00   0.54392   3 ;     C1-    C2-    C3-   H15
     6     10     13     15      9     0.00   0.54392   3 ;     C1-    C2-    C3-   H16
     6     10     13     16      9     0.00   2.17568   3 ;     C1-    C2-    C3-    C4
     7      6     10     11      9     0.00   0.50208   3 ;    H10-    C1-    C2-   H13
     7      6     10     12      9     0.00   0.50208   3 ;    H10-    C1-    C2-   H14
     7      6     10     13      9     0.00   0.54392   3 ;    H10-    C1-    C2-    C3
     8      6     10     11      9     0.00   0.50208   3 ;    H11-    C1-    C2-   H13
     8      6     10     12      9     0.00   0.50208   3 ;    H11-    C1-    C2-   H14
     8      6     10     13      9     0.00   0.54392   3 ;    H11-    C1-    C2-    C3
     9      6     10     11      9     0.00   0.50208   3 ;    H12-    C1-    C2-   H13
     9      6     10     12      9     0.00   0.50208   3 ;    H12-    C1-    C2-   H14
     9      6     10     13      9     0.00   0.54392   3 ;    H12-    C1-    C2-    C3
    10     13     16     17      9     0.00   0.54392   3 ;     C2-    C3-    C4-   H17
    10     13     16     18      9     0.00   0.54392   3 ;     C2-    C3-    C4-   H18
    10     13     16     19      9     0.00   2.17568   3 ;     C2-    C3-    C4-    C5
    11     10     13     14      9     0.00   0.50208   3 ;    H13-    C2-    C3-   H15
    11     10     13     15      9     0.00   0.50208   3 ;    H13-    C2-    C3-   H16
    11     10     13     16      9     0.00   0.54392   3 ;    H13-    C2-    C3-    C4
    12     10     13     14      9     0.00   0.50208   3 ;    H14-    C2-    C3-   H15
    12     10     13     15      9     0.00   0.50208   3 ;    H14-    C2-    C3-   H16
    12     10     13     16      9     0.00   0.54392   3 ;    H14-    C2-    C3-    C4
    13     16     19     20      9     0.00   0.54392   3 ;     C3-    C4-    C5-   H19
    13     16     19     21      9     0.00   0.54392   3 ;     C3-    C4-    C5-   H20
    13     16     19     22      9     0.00   2.17568   3 ;     C3-    C4-    C5-    C6
    14     13     16     17      9     0.00   0.50208   3 ;    H15-    C3-    C4-   H17
    14     13     16     18      9     0.00   0.50208   3 ;    H15-    C3-    C4-   H18
    14     13     16     19      9     0.00   0.54392   3 ;    H15-    C3-    C4-    C5
    15     13     16     17      9     0.00   0.50208   3 ;    H16-    C3-    C4-   H17
    15     13     16     18      9     0.00   0.50208   3 ;    H16-    C3-    C4-   H18
    15     13     16     19      9     0.00   0.54392   3 ;    H16-    C3-    C4-    C5
    16     19     22     23      9     0.00   0.54392   3 ;     C4-    C5-    C6-   H21
    16     19     22     24      9     0.00   0.54392   3 ;     C4-    C5-    C6-   H22
    16     19     22     25      9     0.00   2.17568   3 ;     C4-    C5-    C6-    C7
    17     16     19     20      9     0.00   0.50208   3 ;    H17-    C4-    C5-   H19
    17     16     19     21      9     0.00   0.50208   3 ;    H17-    C4-    C5-   H20
    17     16     19     22      9     0.00   0.54392   3 ;    H17-    C4-    C5-    C6
    18     16     19     20      9     0.00   0.50208   3 ;    H18-    C4-    C5-   H19
    18     16     19     21      9     0.00   0.50208   3 ;    H18-    C4-    C5-   H20
    18     16     19     22      9     0.00   0.54392   3 ;    H18-    C4-    C5-    C6
    19     22     25     26      9     0.00   0.54392   3 ;     C5-    C6-    C7-   H23
    19     22     25     27      9     0.00   0.54392   3 ;     C5-    C6-    C7-   H24
    20     19     22     23      9     0.00   0.50208   3 ;    H19-    C5-    C6-   H21
    20     19     22     24      9     0.00   0.50208   3 ;    H19-    C5-    C6-   H22
    20     19     22     25      9     0.00   0.54392   3 ;    H19-    C5-    C6-    C7
    21     19     22     23      9     0.00   0.50208   3 ;    H20-    C5-    C6-   H21
    21     19     22     24      9     0.00   0.50208   3 ;    H20-    C5-    C6-   H22
    21     19     22     25      9     0.00   0.54392   3 ;    H20-    C5-    C6-    C7
    23     22     25     26      9     0.00   0.50208   3 ;    H21-    C6-    C7-   H23
    23     22     25     27      9     0.00   0.50208   3 ;    H21-    C6-    C7-   H24
    24     22     25     26      9     0.00   0.50208   3 ;    H22-    C6-    C7-   H23
    24     22     25     27      9     0.00   0.50208   3 ;    H22-    C6-    C7-   H24
    25      1      2      5      9     0.00   0.25104   3 ;     C7-    C8-    O9-   H27  
