YT0_GMX.gro created by acpype (v: 2023.10.27) on Sun Nov 16 17:47:51 2025
 54
    1  YT0  H01    1   1.961   1.728   2.252
    1  YT0  H02    2   1.795   1.668   2.278
    1  YT0  H03    3   1.891   1.609   2.139
    1  YT0  H04    4   1.627   1.862   2.221
    1  YT0  H05    5   1.389   2.471   2.011
    1  YT0  H06    6   1.513   2.061   2.132
    1  YT0  H07    7   1.443   2.625   1.859
    1  YT0  H08    8   1.617   2.636   1.823
    1  YT0  H09    9   1.506   2.562   1.705
    1  YT0  H10   10   1.843   2.172   1.693
    1  YT0  H11   11   1.942   2.296   1.732
    1  YT0  H12   12   1.800   2.157   1.477
    1  YT0  H13   13   1.824   2.281   1.345
    1  YT0  H14   14   1.889   2.576   1.422
    1  YT0  H15   15   1.936   2.449   1.307
    1  YT0  H16   16   2.126   2.613   1.478
    1  YT0  H17   17   2.095   2.638   1.304
    1  YT0  H18   18   2.404   2.455   1.304
    1  YT0  H19   19   2.327   2.613   1.278
    1  YT0  H20   20   2.365   2.559   1.443
    1  YT0  H21   21   2.233   2.408   1.550
    1  YT0  H22   22   2.273   2.283   1.426
    1  YT0  H23   23   2.073   2.228   1.562
    1  YT0  H24   24   2.037   2.245   1.387
    1  YT0  H25   25   1.632   2.484   1.564
    1  YT0  H26   26   1.764   2.558   1.624
    1  YT0   C1   27   1.869   1.696   2.203
    1  YT0   C2   28   1.815   1.807   2.119
    1  YT0   C3   29   1.700   1.885   2.143
    1  YT0   C4   30   1.689   1.992   2.061
    1  YT0   C5   31   1.579   2.204   2.003
    1  YT0   C6   32   1.468   2.403   1.980
    1  YT0   C7   33   1.549   2.441   1.875
    1  YT0   N1   34   1.589   2.084   2.069
    1  YT0   C8   35   1.528   2.575   1.811
    1  YT0   C9   36   1.650   2.349   1.838
    1  YT0  C10   37   1.846   2.280   1.682
    1  YT0  C11   38   1.831   2.352   1.545
    1  YT0  C12   39   1.777   2.257   1.440
    1  YT0  C13   40   1.632   2.259   1.420
    1  YT0  C14   41   1.963   2.500   1.399
    1  YT0  C15   42   2.099   2.565   1.384
    1  YT0   N2   43   1.481   2.286   2.044
    1  YT0  C16   44   2.333   2.527   1.344
    1  YT0  C17   45   2.203   2.361   1.456
    1  YT0  C18   46   2.067   2.298   1.478
    1  YT0  C19   47   1.727   2.456   1.610
    1  YT0   N3   48   1.737   2.368   1.727
    1  YT0   N4   49   1.519   2.258   1.396
    1  YT0   N5   50   1.967   2.402   1.509
    1  YT0   N6   51   2.201   2.464   1.353
    1  YT0   N7   52   1.664   2.232   1.902
    1  YT0   S1   53   1.811   1.983   1.940
    1  YT0   N8   54   1.875   1.841   2.004
   20.31200    20.57000    20.00400
