DMPC_128 t= 100000.00000 step= 50000000
50552
    1MY    H14T    1   4.248   5.870   6.703
    1MY    C114    2   4.163   5.935   6.721
    1MY    H14R    3   4.165   6.022   6.655
    1MY    H14S    4   4.073   5.876   6.702
    1MY    C113    5   4.192   5.966   6.871
    1MY    H13R    6   4.221   5.871   6.914
    1MY    H13S    7   4.278   6.033   6.867
    1MY    C112    8   4.079   6.031   6.953
    1MY    H12R    9   4.067   6.131   6.911
    1MY    H12S   10   3.990   5.968   6.943
    1MY    C111   11   4.132   6.039   7.096
    1MY    H11R   12   4.047   6.028   7.164
    1MY    H11S   13   4.210   5.968   7.125
    1MY    C110   14   4.206   6.166   7.129
    1MY    H10R   15   4.243   6.169   7.232
    1MY    H10S   16   4.291   6.170   7.061
    1MY     C19   17   4.127   6.298   7.111
    1MY     H9R   18   4.184   6.388   7.134
    1MY     H9S   19   4.073   6.305   7.017
    1MY     C18   20   4.010   6.310   7.209
    1MY     H8R   21   3.950   6.219   7.214
    1MY     H8S   22   4.054   6.309   7.309
    1MY     C17   23   3.923   6.437   7.190
    1MY     H7R   24   3.980   6.517   7.238
    1MY     H7S   25   3.917   6.466   7.084
    1MY     C16   26   3.777   6.427   7.252
    1MY     H6R   27   3.790   6.397   7.356
    1MY     H6S   28   3.724   6.522   7.247
    1MY     C15   29   3.682   6.327   7.179
    1MY     H5R   30   3.683   6.350   7.072
    1MY     H5S   31   3.725   6.226   7.180
    1MY     C14   32   3.545   6.328   7.242
    1MY     H4R   33   3.549   6.289   7.344
    1MY     H4S   34   3.507   6.430   7.253
    1MY     C13   35   3.437   6.234   7.180
    1MY     H3R   36   3.345   6.266   7.230
    1MY     H3S   37   3.421   6.262   7.076
    1MY     C12   38   3.471   6.082   7.192
    1MY     H2R   39   3.397   6.013   7.150
    1MY     H2S   40   3.568   6.066   7.142
    2PC     C11   41   3.488   6.041   7.336
    2PC     O12   42   3.427   6.087   7.433
    2PC     O11   43   3.591   5.951   7.351
    2PC      C1   44   3.630   5.909   7.484
    2PC      HR   45   3.723   5.854   7.471
    2PC      HS   46   3.639   5.996   7.550
    2PC      C2   47   3.511   5.825   7.555
    2PC      HX   48   3.439   5.894   7.600
    2PC      C3   49   3.575   5.734   7.664
    2PC      HA   50   3.502   5.678   7.724
    2PC      HB   51   3.639   5.662   7.613
    2PC     O31   52   3.650   5.805   7.768
    2PC     P31   53   3.588   5.868   7.899
    2PC     O32   54   3.551   5.741   7.983
    2PC     C31   55   3.650   5.678   8.070
    2PC     H1A   56   3.737   5.662   8.006
    2PC     H1B   57   3.668   5.725   8.167
    2PC     C32   58   3.603   5.535   8.097
    2PC     H2A   59   3.589   5.478   8.005
    2PC     H2B   60   3.684   5.487   8.153
    2PC     N31   61   3.472   5.506   8.164
    2PC     C33   62   3.471   5.371   8.208
    2PC     H3A   63   3.500   5.308   8.124
    2PC     H3B   64   3.370   5.343   8.239
    2PC     H3C   65   3.543   5.372   8.290
    2PC     C34   66   3.362   5.520   8.068
    2PC     H4A   67   3.263   5.509   8.111
    2PC     H4B   68   3.367   5.447   7.987
    2PC     H4C   69   3.373   5.620   8.024
    2PC     C35   70   3.445   5.605   8.278
    2PC     H5A   71   3.348   5.578   8.318
    2PC     H5B   72   3.449   5.710   8.248
    2PC     H5C   73   3.513   5.588   8.363
    2PC     O33   74   3.696   5.942   7.967
    2PC     O34   75   3.468   5.939   7.856
    2PC     O21   76   3.457   5.734   7.453
    2PC     C21   77   3.327   5.706   7.460
    2PC     O22   78   3.257   5.743   7.550
    3MY    H14T   79   2.615   5.200   6.349
    3MY    C114   80   2.722   5.178   6.347
    3MY    H14R   81   2.741   5.073   6.367
    3MY    H14S   82   2.755   5.198   6.244
    3MY    C113   83   2.785   5.265   6.455
    3MY    H13R   84   2.743   5.221   6.546
    3MY    H13S   85   2.894   5.254   6.458
    3MY    C112   86   2.750   5.416   6.449
    3MY    H12R   87   2.800   5.470   6.368
    3MY    H12S   88   2.646   5.440   6.427
    3MY    C111   89   2.791   5.499   6.573
    3MY    H11R   90   2.756   5.602   6.570
    3MY    H11S   91   2.738   5.453   6.657
    3MY    C110   92   2.939   5.498   6.589
    3MY    H10R   93   2.973   5.398   6.617
    3MY    H10S   94   2.984   5.514   6.491
    3MY     C19   95   2.976   5.602   6.695
    3MY     H9R   96   3.082   5.620   6.676
    3MY     H9S   97   2.920   5.694   6.678
    3MY     C18   98   2.950   5.559   6.841
    3MY     H8R   99   2.975   5.645   6.904
    3MY     H8S  100   2.843   5.538   6.843
    3MY     C17  101   3.040   5.441   6.876
    3MY     H7R  102   3.024   5.348   6.821
    3MY     H7S  103   3.141   5.464   6.844
    3MY     C16  104   3.031   5.415   7.030
    3MY     H6R  105   2.933   5.368   7.046
    3MY     H6S  106   3.110   5.343   7.052
    3MY     C15  107   3.055   5.536   7.132
    3MY     H5R  108   2.988   5.621   7.118
    3MY     H5S  109   3.047   5.496   7.233
    3MY     C14  110   3.194   5.599   7.107
    3MY     H4R  111   3.269   5.522   7.088
    3MY     H4S  112   3.194   5.661   7.017
    3MY     C13  113   3.242   5.694   7.220
    3MY     H3R  114   3.327   5.757   7.192
    3MY     H3S  115   3.156   5.751   7.256
    3MY     C12  116   3.282   5.618   7.350
    3MY     H2R  117   3.196   5.561   7.384
    3MY     H2S  118   3.366   5.549   7.336
    4MY    H14T  119   1.763   1.862   6.149
    4MY    C114  120   1.808   1.783   6.209
    4MY    H14R  121   1.893   1.742   6.154
    4MY    H14S  122   1.853   1.830   6.297
    4MY    C113  123   1.701   1.677   6.251
    4MY    H13R  124   1.628   1.726   6.315
    4MY    H13S  125   1.654   1.629   6.165
    4MY    C112  126   1.752   1.552   6.331
    4MY    H12R  127   1.830   1.495   6.280
    4MY    H12S  128   1.799   1.582   6.424
    4MY    C111  129   1.632   1.458   6.369
    4MY    H11R  130   1.546   1.515   6.403
    4MY    H11S  131   1.602   1.408   6.276
    4MY    C110  132   1.661   1.349   6.468
    4MY    H10R  133   1.590   1.269   6.447
    4MY    H10S  134   1.762   1.314   6.447
    4MY     C19  135   1.636   1.391   6.612
    4MY     H9R  136   1.695   1.479   6.639
    4MY     H9S  137   1.529   1.405   6.629
    4MY     C18  138   1.683   1.277   6.700
    4MY     H8R  139   1.603   1.206   6.680
    4MY     H8S  140   1.774   1.227   6.667
    4MY     C17  141   1.690   1.334   6.851
    4MY     H7R  142   1.609   1.402   6.873
    4MY     H7S  143   1.682   1.253   6.925
    4MY     C16  144   1.825   1.402   6.890
    4MY     H6R  145   1.904   1.326   6.883
    4MY     H6S  146   1.847   1.469   6.807
    4MY     C15  147   1.829   1.472   7.025
    4MY     H5R  148   1.766   1.421   7.099
    4MY     H5S  149   1.932   1.477   7.060
    4MY     C14  150   1.788   1.622   7.034
    4MY     H4R  151   1.871   1.677   6.989
    4MY     H4S  152   1.691   1.631   6.984
    4MY     C13  153   1.775   1.680   7.172
    4MY     H3R  154   1.735   1.781   7.163
    4MY     H3S  155   1.701   1.625   7.230
    4MY     C12  156   1.916   1.673   7.242
    4MY     H2R  157   1.924   1.576   7.291
    4MY     H2S  158   1.992   1.688   7.165
    5PC     C11  159   1.941   1.767   7.352
    5PC     O12  160   1.867   1.857   7.390
    5PC     O11  161   2.067   1.745   7.403
    5PC      C1  162   2.112   1.832   7.515
    5PC      HR  163   2.069   1.931   7.499
    5PC      HS  164   2.068   1.809   7.612
    5PC      C2  165   2.266   1.840   7.514
    5PC      HX  166   2.309   1.740   7.525
    5PC      C3  167   2.319   1.932   7.628
    5PC      HA  168   2.429   1.929   7.632
    5PC      HB  169   2.292   2.037   7.610
    5PC     O31  170   2.266   1.896   7.764
    5PC     P31  171   2.353   1.797   7.855
    5PC     O32  172   2.460   1.899   7.920
    5PC     C31  173   2.580   1.940   7.860
    5PC     H1A  174   2.573   1.928   7.752
    5PC     H1B  175   2.600   2.044   7.886
    5PC     C32  176   2.691   1.839   7.900
    5PC     H2A  177   2.678   1.746   7.845
    5PC     H2B  178   2.785   1.883   7.867
    5PC     N31  179   2.713   1.815   8.053
    5PC     C33  180   2.608   1.716   8.108
    5PC     H3A  181   2.627   1.614   8.073
    5PC     H3B  182   2.505   1.735   8.079
    5PC     H3C  183   2.617   1.713   8.217
    5PC     C34  184   2.708   1.942   8.127
    5PC     H4A  185   2.607   1.982   8.123
    5PC     H4B  186   2.784   2.010   8.089
    5PC     H4C  187   2.739   1.924   8.230
    5PC     C35  188   2.840   1.745   8.076
    5PC     H5A  189   2.835   1.658   8.010
    5PC     H5B  190   2.853   1.731   8.183
    5PC     H5C  191   2.919   1.814   8.042
    5PC     O33  192   2.264   1.750   7.966
    5PC     O34  193   2.417   1.688   7.777
    5PC     O21  194   2.303   1.899   7.386
    5PC     C21  195   2.406   1.857   7.319
    5PC     O22  196   2.484   1.778   7.365
    6MY    H14T  197   3.507   1.535   6.446
    6MY    C114  198   3.514   1.521   6.554
    6MY    H14R  199   3.500   1.413   6.562
    6MY    H14S  200   3.611   1.562   6.580
    6MY    C113  201   3.399   1.599   6.610
    6MY    H13R  202   3.308   1.542   6.591
    6MY    H13S  203   3.404   1.599   6.719
    6MY    C112  204   3.368   1.738   6.540
    6MY    H12R  205   3.463   1.790   6.524
    6MY    H12S  206   3.334   1.725   6.437
    6MY    C111  207   3.253   1.815   6.615
    6MY    H11R  208   3.284   1.836   6.718
    6MY    H11S  209   3.248   1.908   6.559
    6MY    C110  210   3.115   1.746   6.621
    6MY    H10R  211   3.103   1.694   6.525
    6MY    H10S  212   3.123   1.665   6.694
    6MY     C19  213   2.997   1.840   6.641
    6MY     H9R  214   3.013   1.896   6.734
    6MY     H9S  215   2.995   1.910   6.558
    6MY     C18  216   2.877   1.750   6.643
    6MY     H8R  217   2.862   1.700   6.547
    6MY     H8S  218   2.888   1.676   6.723
    6MY     C17  219   2.748   1.832   6.671
    6MY     H7R  220   2.747   1.924   6.612
    6MY     H7S  221   2.662   1.778   6.632
    6MY     C16  222   2.731   1.860   6.821
    6MY     H6R  223   2.754   1.777   6.887
    6MY     H6S  224   2.793   1.941   6.859
    6MY     C15  225   2.583   1.917   6.842
    6MY     H5R  226   2.582   1.989   6.760
    6MY     H5S  227   2.510   1.840   6.818
    6MY     C14  228   2.557   1.984   6.975
    6MY     H4R  229   2.640   2.047   7.009
    6MY     H4S  230   2.473   2.051   6.954
    6MY     C13  231   2.515   1.890   7.095
    6MY     H3R  232   2.459   1.807   7.052
    6MY     H3S  233   2.607   1.851   7.139
    6MY     C12  234   2.426   1.947   7.202
    6MY     H2R  235   2.473   2.040   7.235
    6MY     H2S  236   2.329   1.966   7.155
    7MY    H14T  237   3.796   2.875   6.093
    7MY    C114  238   3.774   2.871   6.200
    7MY    H14R  239   3.722   2.962   6.226
    7MY    H14S  240   3.726   2.780   6.236
    7MY    C113  241   3.906   2.882   6.276
    7MY    H13R  242   3.884   2.889   6.382
    7MY    H13S  243   3.973   2.799   6.252
    7MY    C112  244   3.990   2.999   6.229
    7MY    H12R  245   4.005   2.973   6.124
    7MY    H12S  246   3.933   3.092   6.230
    7MY    C111  247   4.121   3.004   6.302
    7MY    H11R  248   4.166   2.906   6.324
    7MY    H11S  249   4.188   3.050   6.229
    7MY    C110  250   4.111   3.096   6.427
    7MY    H10R  251   4.071   3.195   6.404
    7MY    H10S  252   4.044   3.050   6.500
    7MY     C19  253   4.249   3.105   6.496
    7MY     H9R  254   4.325   3.158   6.439
    7MY     H9S  255   4.239   3.164   6.588
    7MY     C18  256   4.307   2.972   6.540
    7MY     H8R  257   4.250   2.929   6.622
    7MY     H8S  258   4.307   2.904   6.455
    7MY     C17  259   4.455   2.979   6.586
    7MY     H7R  260   4.486   2.878   6.612
    7MY     H7S  261   4.519   3.003   6.500
    7MY     C16  262   4.490   3.064   6.708
    7MY     H6R  263   4.480   3.167   6.672
    7MY     H6S  264   4.411   3.060   6.784
    7MY     C15  265   4.625   3.048   6.769
    7MY     H5R  266   4.703   3.050   6.693
    7MY     H5S  267   4.638   3.141   6.825
    7MY     C14  268   4.650   2.932   6.865
    7MY     H4R  269   4.588   2.944   6.954
    7MY     H4S  270   4.634   2.834   6.819
    7MY     C13  271   4.790   2.939   6.919
    7MY     H3R  272   4.863   2.975   6.846
    7MY     H3S  273   4.786   3.015   6.997
    7MY     C12  274   4.847   2.810   6.971
    7MY     H2R  275   4.780   2.774   7.050
    7MY     H2S  276   4.837   2.732   6.895
    8PC     C11  277   4.985   2.816   7.028
    8PC     O12  278   5.071   2.887   6.975
    8PC     O11  279   5.003   2.736   7.136
    8PC      C1  280   5.129   2.742   7.212
    8PC      HR  281   5.145   2.645   7.259
    8PC      HS  282   5.210   2.762   7.142
    8PC      C2  283   5.123   2.857   7.319
    8PC      HX  284   5.222   2.842   7.364
    8PC      C3  285   5.018   2.842   7.426
    8PC      HA  286   4.922   2.865   7.379
    8PC      HB  287   5.024   2.739   7.462
    8PC     O31  288   5.035   2.947   7.537
    8PC     P31  289   5.149   2.936   7.649
    8PC     O32  290   5.289   2.923   7.570
    8PC     C31  291   5.369   3.040   7.544
    8PC     H1A  292   5.419   3.017   7.450
    8PC     H1B  293   5.312   3.134   7.542
    8PC     C32  294   5.479   3.051   7.655
    8PC     H2A  295   5.532   3.147   7.653
    8PC     H2B  296   5.430   3.041   7.752
    8PC     N31  297   5.580   2.941   7.657
    8PC     C33  298   5.676   2.948   7.541
    8PC     H3A  299   5.757   2.876   7.547
    8PC     H3B  300   5.710   3.051   7.532
    8PC     H3C  301   5.620   2.930   7.450
    8PC     C34  302   5.522   2.801   7.656
    8PC     H4A  303   5.447   2.790   7.735
    8PC     H4B  304   5.606   2.733   7.670
    8PC     H4C  305   5.469   2.778   7.563
    8PC     C35  306   5.664   2.961   7.773
    8PC     H5A  307   5.744   2.888   7.768
    8PC     H5B  308   5.607   2.947   7.865
    8PC     H5C  309   5.711   3.059   7.773
    8PC     O33  310   5.149   3.061   7.727
    8PC     O34  311   5.124   2.805   7.710
    8PC     O21  312   5.105   2.993   7.259
    8PC     C21  313   5.205   3.066   7.221
    8PC     O22  314   5.326   3.041   7.236
    9MY    H14T  315   4.421   3.837   6.029
    9MY    C114  316   4.435   3.813   6.135
    9MY    H14R  317   4.501   3.892   6.173
    9MY    H14S  318   4.333   3.819   6.174
    9MY    C113  319   4.516   3.684   6.142
    9MY    H13R  320   4.443   3.603   6.130
    9MY    H13S  321   4.588   3.682   6.060
    9MY    C112  322   4.601   3.657   6.265
    9MY    H12R  323   4.666   3.741   6.292
    9MY    H12S  324   4.521   3.667   6.338
    9MY    C111  325   4.664   3.516   6.273
    9MY    H11R  326   4.589   3.452   6.227
    9MY    H11S  327   4.756   3.503   6.216
    9MY    C110  328   4.707   3.503   6.419
    9MY    H10R  329   4.770   3.587   6.447
    9MY    H10S  330   4.609   3.503   6.469
    9MY     C19  331   4.779   3.374   6.445
    9MY     H9R  332   4.723   3.282   6.430
    9MY     H9S  333   4.863   3.372   6.375
    9MY     C18  334   4.842   3.371   6.591
    9MY     H8R  335   4.888   3.469   6.602
    9MY     H8S  336   4.760   3.360   6.662
    9MY     C17  337   4.945   3.254   6.609
    9MY     H7R  338   4.896   3.157   6.599
    9MY     H7S  339   5.011   3.261   6.522
    9MY     C16  340   5.022   3.274   6.740
    9MY     H6R  341   5.082   3.183   6.747
    9MY     H6S  342   5.091   3.355   6.715
    9MY     C15  343   4.944   3.322   6.865
    9MY     H5R  344   4.902   3.422   6.858
    9MY     H5S  345   4.863   3.249   6.877
    9MY     C14  346   5.038   3.327   6.985
    9MY     H4R  347   5.125   3.388   6.961
    9MY     H4S  348   4.983   3.379   7.064
    9MY     C13  349   5.075   3.184   7.036
    9MY     H3R  350   4.982   3.133   7.061
    9MY     H3S  351   5.127   3.126   6.959
    9MY     C12  352   5.161   3.197   7.165
    9MY     H2R  353   5.248   3.261   7.149
    9MY     H2S  354   5.104   3.248   7.244
   10MY    H14T  355   3.611   4.557   6.086
   10MY    C114  356   3.660   4.643   6.132
   10MY    H14R  357   3.753   4.665   6.079
   10MY    H14S  358   3.588   4.723   6.116
   10MY    C113  359   3.676   4.621   6.285
   10MY    H13R  360   3.734   4.531   6.308
   10MY    H13S  361   3.729   4.703   6.333
   10MY    C112  362   3.531   4.620   6.353
   10MY    H12R  363   3.474   4.702   6.309
   10MY    H12S  364   3.480   4.528   6.327
   10MY    C111  365   3.532   4.619   6.507
   10MY    H11R  366   3.434   4.621   6.555
   10MY    H11S  367   3.557   4.515   6.528
   10MY    C110  368   3.620   4.721   6.590
   10MY    H10R  369   3.722   4.704   6.556
   10MY    H10S  370   3.594   4.824   6.566
   10MY     C19  371   3.615   4.703   6.746
   10MY     H9R  372   3.617   4.598   6.778
   10MY     H9S  373   3.709   4.740   6.787
   10MY     C18  374   3.492   4.780   6.808
   10MY     H8R  375   3.513   4.887   6.820
   10MY     H8S  376   3.401   4.776   6.748
   10MY     C17  377   3.459   4.719   6.949
   10MY     H7R  378   3.378   4.768   7.002
   10MY     H7S  379   3.430   4.613   6.948
   10MY     C16  380   3.579   4.735   7.035
   10MY     H6R  381   3.653   4.663   7.000
   10MY     H6S  382   3.615   4.837   7.020
   10MY     C15  383   3.566   4.704   7.183
   10MY     H5R  384   3.668   4.720   7.216
   10MY     H5S  385   3.505   4.773   7.242
   10MY     C14  386   3.508   4.563   7.213
   10MY     H4R  387   3.401   4.555   7.191
   10MY     H4S  388   3.538   4.497   7.131
   10MY     C13  389   3.544   4.509   7.351
   10MY     H3R  390   3.651   4.491   7.366
   10MY     H3S  391   3.533   4.590   7.424
   10MY     C12  392   3.467   4.383   7.387
   10MY     H2R  393   3.361   4.403   7.371
   10MY     H2S  394   3.491   4.303   7.317
   11PC     C11  395   3.493   4.327   7.532
   11PC     O12  396   3.599   4.329   7.593
   11PC     O11  397   3.385   4.266   7.577
   11PC      C1  398   3.391   4.217   7.714
   11PC      HR  399   3.323   4.132   7.729
   11PC      HS  400   3.489   4.189   7.752
   11PC      C2  401   3.326   4.331   7.802
   11PC      HX  402   3.400   4.411   7.789
   11PC      C3  403   3.309   4.275   7.947
   11PC      HA  404   3.243   4.190   7.926
   11PC      HB  405   3.410   4.255   7.985
   11PC     O31  406   3.244   4.370   8.033
   11PC     P31  407   3.329   4.493   8.100
   11PC     O32  408   3.415   4.416   8.202
   11PC     C31  409   3.355   4.352   8.315
   11PC     H1A  410   3.257   4.316   8.282
   11PC     H1B  411   3.420   4.266   8.336
   11PC     C32  412   3.351   4.451   8.441
   11PC     H2A  413   3.456   4.475   8.461
   11PC     H2B  414   3.295   4.541   8.414
   11PC     N31  415   3.282   4.413   8.568
   11PC     C33  416   3.344   4.498   8.671
   11PC     H3A  417   3.446   4.529   8.647
   11PC     H3B  418   3.357   4.446   8.766
   11PC     H3C  419   3.275   4.581   8.687
   11PC     C34  420   3.330   4.275   8.603
   11PC     H4A  421   3.437   4.267   8.586
   11PC     H4B  422   3.275   4.206   8.539
   11PC     H4C  423   3.307   4.263   8.709
   11PC     C35  424   3.138   4.426   8.562
   11PC     H5A  425   3.108   4.531   8.552
   11PC     H5B  426   3.107   4.390   8.660
   11PC     H5C  427   3.101   4.374   8.473
   11PC     O33  428   3.415   4.552   7.997
   11PC     O34  429   3.230   4.578   8.170
   11PC     O21  430   3.198   4.377   7.751
   11PC     C21  431   3.186   4.482   7.669
   11PC     O22  432   3.282   4.547   7.632
   12MY    H14T  433   3.233   4.230   6.193
   12MY    C114  434   3.159   4.310   6.196
   12MY    H14R  435   3.211   4.403   6.173
   12MY    H14S  436   3.086   4.285   6.118
   12MY    C113  437   3.107   4.307   6.341
   12MY    H13R  438   3.005   4.343   6.328
   12MY    H13S  439   3.105   4.204   6.376
   12MY    C112  440   3.180   4.398   6.431
   12MY    H12R  441   3.285   4.377   6.452
   12MY    H12S  442   3.178   4.493   6.378
   12MY    C111  443   3.092   4.408   6.561
   12MY    H11R  444   2.987   4.421   6.535
   12MY    H11S  445   3.099   4.315   6.617
   12MY    C110  446   3.132   4.527   6.652
   12MY    H10R  447   3.232   4.514   6.694
   12MY    H10S  448   3.126   4.617   6.592
   12MY     C19  449   3.048   4.536   6.779
   12MY     H9R  450   2.941   4.533   6.762
   12MY     H9S  451   3.086   4.446   6.828
   12MY     C18  452   3.086   4.662   6.864
   12MY     H8R  453   3.193   4.670   6.882
   12MY     H8S  454   3.063   4.748   6.800
   12MY     C17  455   3.014   4.676   7.006
   12MY     H7R  456   3.029   4.779   7.042
   12MY     H7S  457   2.905   4.670   7.003
   12MY     C16  458   3.068   4.594   7.124
   12MY     H6R  459   3.054   4.489   7.101
   12MY     H6S  460   3.176   4.608   7.132
   12MY     C15  461   2.997   4.630   7.257
   12MY     H5R  462   2.996   4.739   7.270
   12MY     H5S  463   2.891   4.607   7.243
   12MY     C14  464   3.057   4.563   7.380
   12MY     H4R  465   3.049   4.456   7.362
   12MY     H4S  466   3.160   4.598   7.376
   12MY     C13  467   3.007   4.611   7.522
   12MY     H3R  468   3.051   4.709   7.545
   12MY     H3S  469   2.900   4.629   7.513
   12MY     C12  470   3.043   4.524   7.639
   12MY     H2R  471   3.001   4.574   7.727
   12MY     H2S  472   2.988   4.430   7.626
   13MY    H14T  473   1.412   0.362   6.548
   13MY    C114  474   1.318   0.353   6.603
   13MY    H14R  475   1.252   0.434   6.569
   13MY    H14S  476   1.272   0.259   6.575
   13MY    C113  477   1.335   0.339   6.751
   13MY    H13R  478   1.235   0.337   6.793
   13MY    H13S  479   1.385   0.245   6.777
   13MY    C112  480   1.410   0.454   6.820
   13MY    H12R  481   1.433   0.429   6.924
   13MY    H12S  482   1.503   0.472   6.766
   13MY    C111  483   1.333   0.583   6.823
   13MY    H11R  484   1.313   0.594   6.716
   13MY    H11S  485   1.240   0.566   6.877
   13MY    C110  486   1.418   0.704   6.867
   13MY    H10R  487   1.494   0.726   6.792
   13MY    H10S  488   1.355   0.793   6.862
   13MY     C19  489   1.489   0.676   7.007
   13MY     H9R  490   1.418   0.642   7.083
   13MY     H9S  491   1.564   0.599   6.991
   13MY     C18  492   1.560   0.806   7.053
   13MY     H8R  493   1.494   0.888   7.025
   13MY     H8S  494   1.571   0.801   7.161
   13MY     C17  495   1.700   0.839   6.991
   13MY     H7R  496   1.774   0.785   7.049
   13MY     H7S  497   1.707   0.808   6.886
   13MY     C16  498   1.739   0.987   6.981
   13MY     H6R  499   1.843   0.992   6.947
   13MY     H6S  500   1.675   1.037   6.907
   13MY     C15  501   1.747   1.076   7.107
   13MY     H5R  502   1.787   1.175   7.083
   13MY     H5S  503   1.645   1.092   7.142
   13MY     C14  504   1.832   1.029   7.231
   13MY     H4R  505   1.834   0.920   7.232
   13MY     H4S  506   1.938   1.049   7.211
   13MY     C13  507   1.782   1.087   7.365
   13MY     H3R  508   1.684   1.056   7.400
   13MY     H3S  509   1.844   1.060   7.451
   13MY     C12  510   1.784   1.247   7.365
   13MY     H2R  511   1.881   1.273   7.321
   13MY     H2S  512   1.714   1.285   7.290
   14PC     C11  513   1.755   1.325   7.488
   14PC     O12  514   1.672   1.293   7.572
   14PC     O11  515   1.813   1.446   7.489
   14PC      C1  516   1.811   1.527   7.616
   14PC      HR  517   1.841   1.624   7.576
   14PC      HS  518   1.713   1.533   7.664
   14PC      C2  519   1.915   1.460   7.709
   14PC      HX  520   1.892   1.358   7.741
   14PC      C3  521   1.926   1.545   7.836
   14PC      HA  522   2.026   1.542   7.881
   14PC      HB  523   1.899   1.642   7.794
   14PC     O31  524   1.829   1.494   7.929
   14PC     P31  525   1.876   1.380   8.031
   14PC     O32  526   1.784   1.411   8.153
   14PC     C31  527   1.663   1.346   8.181
   14PC     H1A  528   1.622   1.419   8.252
   14PC     H1B  529   1.603   1.345   8.089
   14PC     C32  530   1.693   1.212   8.249
   14PC     H2A  531   1.760   1.159   8.182
   14PC     H2B  532   1.745   1.235   8.343
   14PC     N31  533   1.587   1.120   8.293
   14PC     C33  534   1.515   1.066   8.174
   14PC     H3A  535   1.468   0.973   8.206
   14PC     H3B  536   1.590   1.053   8.095
   14PC     H3C  537   1.440   1.142   8.148
   14PC     C34  538   1.493   1.189   8.397
   14PC     H4A  539   1.419   1.111   8.414
   14PC     H4B  540   1.443   1.275   8.351
   14PC     H4C  541   1.561   1.208   8.481
   14PC     C35  542   1.656   1.011   8.356
   14PC     H5A  543   1.579   0.934   8.363
   14PC     H5B  544   1.688   1.027   8.459
   14PC     H5C  545   1.733   0.977   8.287
   14PC     O33  546   1.846   1.245   7.985
   14PC     O34  547   2.010   1.405   8.084
   14PC     O21  548   2.044   1.464   7.645
   14PC     C21  549   2.108   1.359   7.592
   14PC     O22  550   2.062   1.248   7.578
   15MY    H14T  551   2.061   1.155   6.249
   15MY    C114  552   2.015   1.219   6.325
   15MY    H14R  553   2.062   1.314   6.296
   15MY    H14S  554   1.906   1.218   6.323
   15MY    C113  555   2.075   1.164   6.456
   15MY    H13R  556   2.183   1.161   6.441
   15MY    H13S  557   2.066   1.240   6.534
   15MY    C112  558   2.022   1.028   6.502
   15MY    H12R  559   1.916   1.034   6.527
   15MY    H12S  560   2.037   0.967   6.412
   15MY    C111  561   2.099   0.963   6.618
   15MY    H11R  562   2.057   0.864   6.636
   15MY    H11S  563   2.203   0.950   6.587
   15MY    C110  564   2.098   1.041   6.746
   15MY    H10R  565   2.138   1.139   6.718
   15MY    H10S  566   1.993   1.057   6.774
   15MY     C19  567   2.188   0.980   6.859
   15MY     H9R  568   2.157   0.875   6.858
   15MY     H9S  569   2.291   0.999   6.829
   15MY     C18  570   2.157   1.033   7.001
   15MY     H8R  571   2.051   1.017   7.017
   15MY     H8S  572   2.221   0.992   7.079
   15MY     C17  573   2.189   1.185   7.004
   15MY     H7R  574   2.298   1.188   6.997
   15MY     H7S  575   2.142   1.235   6.919
   15MY     C16  576   2.142   1.261   7.137
   15MY     H6R  577   2.034   1.277   7.148
   15MY     H6S  578   2.160   1.191   7.219
   15MY     C15  579   2.218   1.392   7.163
   15MY     H5R  580   2.321   1.378   7.131
   15MY     H5S  581   2.169   1.461   7.094
   15MY     C14  582   2.214   1.437   7.305
   15MY     H4R  583   2.262   1.535   7.303
   15MY     H4S  584   2.115   1.471   7.336
   15MY     C13  585   2.275   1.343   7.405
   15MY     H3R  586   2.248   1.237   7.399
   15MY     H3S  587   2.381   1.347   7.380
   15MY     C12  588   2.250   1.379   7.549
   15MY     H2R  589   2.316   1.325   7.617
   15MY     H2S  590   2.278   1.482   7.572
   16MY    H14T  591   0.813   4.496   6.194
   16MY    C114  592   0.821   4.585   6.256
   16MY    H14R  593   0.902   4.654   6.228
   16MY    H14S  594   0.728   4.639   6.235
   16MY    C113  595   0.838   4.564   6.410
   16MY    H13R  596   0.817   4.659   6.460
   16MY    H13S  597   0.771   4.486   6.447
   16MY    C112  598   0.982   4.517   6.442
   16MY    H12R  599   0.984   4.423   6.386
   16MY    H12S  600   1.059   4.582   6.401
   16MY    C111  601   1.010   4.483   6.594
   16MY    H11R  602   0.926   4.420   6.625
   16MY    H11S  603   1.095   4.415   6.602
   16MY    C110  604   1.021   4.616   6.680
   16MY    H10R  605   1.107   4.679   6.654
   16MY    H10S  606   0.939   4.684   6.657
   16MY     C19  607   1.022   4.608   6.835
   16MY     H9R  608   1.114   4.565   6.877
   16MY     H9S  609   1.015   4.709   6.876
   16MY     C18  610   0.899   4.535   6.891
   16MY     H8R  611   0.812   4.582   6.845
   16MY     H8S  612   0.899   4.429   6.865
   16MY     C17  613   0.904   4.537   7.044
   16MY     H7R  614   0.983   4.468   7.073
   16MY     H7S  615   0.932   4.637   7.079
   16MY     C16  616   0.784   4.482   7.119
   16MY     H6R  617   0.701   4.539   7.075
   16MY     H6S  618   0.772   4.376   7.096
   16MY     C15  619   0.799   4.507   7.270
   16MY     H5R  620   0.826   4.612   7.288
   16MY     H5S  621   0.697   4.482   7.302
   16MY     C14  622   0.902   4.420   7.339
   16MY     H4R  623   0.863   4.319   7.325
   16MY     H4S  624   0.999   4.438   7.292
   16MY     C13  625   0.914   4.445   7.492
   16MY     H3R  626   0.817   4.431   7.539
   16MY     H3S  627   0.978   4.365   7.531
   16MY     C12  628   0.960   4.582   7.530
   16MY     H2R  629   1.057   4.593   7.482
   16MY     H2S  630   0.884   4.656   7.505
   17PC     C11  631   0.990   4.599   7.680
   17PC     O12  632   0.927   4.539   7.765
   17PC     O11  633   1.079   4.688   7.706
   17PC      C1  634   1.075   4.752   7.840
   17PC      HR  635   0.972   4.789   7.847
   17PC      HS  636   1.086   4.668   7.910
   17PC      C2  637   1.167   4.871   7.850
   17PC      HX  638   1.270   4.838   7.834
   17PC      C3  639   1.131   4.958   7.973
   17PC      HA  640   1.183   5.055   7.975
   17PC      HB  641   1.022   4.965   7.969
   17PC     O31  642   1.155   4.880   8.095
   17PC     P31  643   1.299   4.871   8.159
   17PC     O32  644   1.284   4.974   8.278
   17PC     C31  645   1.258   5.117   8.257
   17PC     H1A  646   1.341   5.173   8.214
   17PC     H1B  647   1.170   5.132   8.194
   17PC     C32  648   1.223   5.176   8.392
   17PC     H2A  649   1.193   5.280   8.377
   17PC     H2B  650   1.133   5.130   8.432
   17PC     N31  651   1.329   5.172   8.500
   17PC     C33  652   1.380   5.036   8.542
   17PC     H3A  653   1.474   5.048   8.595
   17PC     H3B  654   1.402   4.979   8.451
   17PC     H3C  655   1.307   4.972   8.592
   17PC     C34  656   1.279   5.225   8.628
   17PC     H4A  657   1.354   5.199   8.703
   17PC     H4B  658   1.185   5.173   8.642
   17PC     H4C  659   1.256   5.332   8.628
   17PC     C35  660   1.450   5.239   8.459
   17PC     H5A  661   1.484   5.200   8.364
   17PC     H5B  662   1.528   5.237   8.535
   17PC     H5C  663   1.422   5.343   8.439
   17PC     O33  664   1.317   4.736   8.215
   17PC     O34  665   1.402   4.931   8.070
   17PC     O21  666   1.129   4.966   7.741
   17PC     C21  667   1.206   4.974   7.628
   17PC     O22  668   1.321   4.932   7.613
   18MY    H14T  669   2.052   4.577   6.661
   18MY    C114  670   2.096   4.581   6.761
   18MY    H14R  671   2.112   4.480   6.798
   18MY    H14S  672   2.196   4.624   6.759
   18MY    C113  673   2.008   4.664   6.860
   18MY    H13R  674   2.060   4.666   6.956
   18MY    H13S  675   1.987   4.764   6.824
   18MY    C112  676   1.877   4.591   6.869
   18MY    H12R  677   1.832   4.570   6.772
   18MY    H12S  678   1.892   4.491   6.910
   18MY    C111  679   1.777   4.662   6.964
   18MY    H11R  680   1.818   4.665   7.065
   18MY    H11S  681   1.775   4.769   6.942
   18MY    C110  682   1.634   4.594   6.954
   18MY    H10R  683   1.587   4.621   6.859
   18MY    H10S  684   1.642   4.485   6.960
   18MY     C19  685   1.557   4.642   7.078
   18MY     H9R  686   1.612   4.624   7.171
   18MY     H9S  687   1.548   4.751   7.085
   18MY     C18  688   1.419   4.563   7.084
   18MY     H8R  689   1.382   4.546   6.983
   18MY     H8S  690   1.455   4.468   7.124
   18MY     C17  691   1.308   4.622   7.165
   18MY     H7R  692   1.220   4.559   7.179
   18MY     H7S  693   1.342   4.649   7.266
   18MY     C16  694   1.242   4.747   7.104
   18MY     H6R  695   1.318   4.825   7.093
   18MY     H6S  696   1.212   4.716   7.003
   18MY     C15  697   1.128   4.809   7.192
   18MY     H5R  698   1.070   4.881   7.134
   18MY     H5S  699   1.057   4.735   7.231
   18MY     C14  700   1.186   4.886   7.311
   18MY     H4R  701   1.252   4.815   7.361
   18MY     H4S  702   1.253   4.963   7.273
   18MY     C13  703   1.081   4.954   7.400
   18MY     H3R  704   1.017   5.011   7.332
   18MY     H3S  705   1.019   4.872   7.438
   18MY     C12  706   1.130   5.049   7.519
   18MY     H2R  707   1.190   5.136   7.495
   18MY     H2S  708   1.043   5.100   7.563
   19MY    H14T  709   3.628   1.153   6.270
   19MY    C114  710   3.655   1.237   6.335
   19MY    H14R  711   3.691   1.320   6.274
   19MY    H14S  712   3.572   1.274   6.394
   19MY    C113  713   3.753   1.193   6.445
   19MY    H13R  714   3.704   1.152   6.533
   19MY    H13S  715   3.817   1.115   6.403
   19MY    C112  716   3.828   1.325   6.482
   19MY    H12R  717   3.881   1.355   6.391
   19MY    H12S  718   3.755   1.400   6.513
   19MY    C111  719   3.924   1.295   6.600
   19MY    H11R  720   3.977   1.201   6.580
   19MY    H11S  721   3.996   1.377   6.596
   19MY    C110  722   3.850   1.269   6.730
   19MY    H10R  723   3.774   1.347   6.731
   19MY    H10S  724   3.804   1.170   6.736
   19MY     C19  725   3.941   1.294   6.850
   19MY     H9R  726   4.005   1.208   6.870
   19MY     H9S  727   4.012   1.375   6.828
   19MY     C18  728   3.850   1.341   6.973
   19MY     H8R  729   3.800   1.429   6.931
   19MY     H8S  730   3.783   1.264   7.010
   19MY     C17  731   3.934   1.381   7.092
   19MY     H7R  732   4.000   1.297   7.115
   19MY     H7S  733   4.002   1.461   7.064
   19MY     C16  734   3.860   1.420   7.221
   19MY     H6R  735   3.821   1.521   7.213
   19MY     H6S  736   3.782   1.343   7.229
   19MY     C15  737   3.952   1.415   7.348
   19MY     H5R  738   3.955   1.313   7.388
   19MY     H5S  739   4.052   1.453   7.329
   19MY     C14  740   3.878   1.496   7.458
   19MY     H4R  741   3.829   1.585   7.415
   19MY     H4S  742   3.793   1.439   7.495
   19MY     C13  743   3.963   1.522   7.582
   19MY     H3R  744   3.969   1.432   7.644
   19MY     H3S  745   4.065   1.555   7.558
   19MY     C12  746   3.898   1.625   7.668
   19MY     H2R  747   3.892   1.713   7.603
   19MY     H2S  748   3.796   1.601   7.696
   20PC     C11  749   3.979   1.657   7.789
   20PC     O12  750   3.963   1.607   7.897
   20PC     O11  751   4.080   1.748   7.753
   20PC      C1  752   4.179   1.790   7.849
   20PC      HR  753   4.217   1.890   7.824
   20PC      HS  754   4.145   1.777   7.952
   20PC      C2  755   4.299   1.690   7.839
   20PC      HX  756   4.260   1.589   7.848
   20PC      C3  757   4.398   1.716   7.946
   20PC      HA  758   4.343   1.701   8.039
   20PC      HB  759   4.489   1.657   7.937
   20PC     O31  760   4.442   1.857   7.944
   20PC     P31  761   4.463   1.944   8.071
   20PC     O32  762   4.619   1.961   8.058
   20PC     C31  763   4.706   1.865   8.114
   20PC     H1A  764   4.655   1.769   8.101
   20PC     H1B  765   4.797   1.857   8.054
   20PC     C32  766   4.747   1.882   8.265
   20PC     H2A  767   4.651   1.869   8.315
   20PC     H2B  768   4.821   1.807   8.293
   20PC     N31  769   4.799   2.020   8.308
   20PC     C33  770   4.717   2.142   8.255
   20PC     H3A  771   4.707   2.143   8.147
   20PC     H3B  772   4.764   2.231   8.297
   20PC     H3C  773   4.615   2.131   8.293
   20PC     C34  774   4.940   2.035   8.253
   20PC     H4A  775   4.972   2.134   8.287
   20PC     H4B  776   4.927   2.026   8.145
   20PC     H4C  777   5.004   1.954   8.287
   20PC     C35  778   4.799   2.020   8.458
   20PC     H5A  779   4.711   1.982   8.511
   20PC     H5B  780   4.824   2.124   8.482
   20PC     H5C  781   4.879   1.951   8.482
   20PC     O33  782   4.394   2.074   8.059
   20PC     O34  783   4.438   1.866   8.193
   20PC     O21  784   4.367   1.708   7.709
   20PC     C21  785   4.401   1.598   7.638
   20PC     O22  786   4.404   1.487   7.692
   21MY    H14T  787   4.668   1.612   6.392
   21MY    C114  788   4.587   1.664   6.340
   21MY    H14R  789   4.629   1.749   6.285
   21MY    H14S  790   4.543   1.588   6.276
   21MY    C113  791   4.475   1.718   6.429
   21MY    H13R  792   4.515   1.786   6.504
   21MY    H13S  793   4.411   1.783   6.369
   21MY    C112  794   4.395   1.610   6.494
   21MY    H12R  795   4.347   1.545   6.421
   21MY    H12S  796   4.462   1.542   6.547
   21MY    C111  797   4.296   1.652   6.604
   21MY    H11R  798   4.352   1.689   6.690
   21MY    H11S  799   4.225   1.726   6.567
   21MY    C110  800   4.215   1.529   6.633
   21MY    H10R  801   4.123   1.552   6.688
   21MY    H10S  802   4.172   1.477   6.547
   21MY     C19  803   4.287   1.423   6.725
   21MY     H9R  804   4.233   1.328   6.719
   21MY     H9S  805   4.390   1.406   6.693
   21MY     C18  806   4.303   1.478   6.867
   21MY     H8R  807   4.395   1.537   6.870
   21MY     H8S  808   4.221   1.549   6.880
   21MY     C17  809   4.306   1.369   6.977
   21MY     H7R  810   4.223   1.299   6.979
   21MY     H7S  811   4.394   1.305   6.964
   21MY     C16  812   4.317   1.424   7.119
   21MY     H6R  813   4.244   1.505   7.122
   21MY     H6S  814   4.266   1.362   7.193
   21MY     C15  815   4.462   1.464   7.155
   21MY     H5R  816   4.516   1.375   7.191
   21MY     H5S  817   4.528   1.500   7.075
   21MY     C14  818   4.485   1.570   7.265
   21MY     H4R  819   4.590   1.585   7.290
   21MY     H4S  820   4.458   1.668   7.226
   21MY     C13  821   4.407   1.550   7.397
   21MY     H3R  822   4.302   1.575   7.383
   21MY     H3S  823   4.407   1.445   7.429
   21MY     C12  824   4.468   1.636   7.508
   21MY     H2R  825   4.575   1.618   7.520
   21MY     H2S  826   4.449   1.741   7.486
   22MY    H14T  827   0.852   1.115   6.378
   22MY    C114  828   0.947   1.071   6.407
   22MY    H14R  829   1.030   1.107   6.345
   22MY    H14S  830   0.955   1.095   6.513
   22MY    C113  831   0.945   0.919   6.388
   22MY    H13R  832   0.925   0.891   6.285
   22MY    H13S  833   1.041   0.876   6.416
   22MY    C112  834   0.845   0.849   6.489
   22MY    H12R  835   0.742   0.883   6.482
   22MY    H12S  836   0.843   0.744   6.459
   22MY    C111  837   0.890   0.855   6.634
   22MY    H11R  838   0.986   0.806   6.649
   22MY    H11S  839   0.911   0.957   6.668
   22MY    C110  840   0.778   0.792   6.720
   22MY    H10R  841   0.686   0.852   6.720
   22MY    H10S  842   0.749   0.694   6.680
   22MY     C19  843   0.822   0.779   6.864
   22MY     H9R  844   0.849   0.880   6.897
   22MY     H9S  845   0.737   0.749   6.925
   22MY     C18  846   0.946   0.688   6.879
   22MY     H8R  847   0.928   0.593   6.828
   22MY     H8S  848   1.036   0.741   6.848
   22MY     C17  849   0.980   0.663   7.026
   22MY     H7R  850   0.886   0.637   7.075
   22MY     H7S  851   1.053   0.582   7.037
   22MY     C16  852   1.027   0.787   7.100
   22MY     H6R  853   1.136   0.789   7.091
   22MY     H6S  854   0.985   0.872   7.047
   22MY     C15  855   0.988   0.796   7.248
   22MY     H5R  856   1.016   0.896   7.283
   22MY     H5S  857   0.880   0.795   7.255
   22MY     C14  858   1.044   0.692   7.346
   22MY     H4R  859   0.986   0.600   7.338
   22MY     H4S  860   1.151   0.675   7.333
   22MY     C13  861   1.042   0.740   7.495
   22MY     H3R  862   1.111   0.672   7.546
   22MY     H3S  863   1.083   0.841   7.492
   22MY     C12  864   0.908   0.741   7.574
   22MY     H2R  865   0.826   0.781   7.513
   22MY     H2S  866   0.878   0.642   7.608
   23PC     C11  867   0.919   0.831   7.692
   23PC     O12  868   0.937   0.803   7.811
   23PC     O11  869   0.939   0.962   7.662
   23PC      C1  870   0.959   1.056   7.763
   23PC      HR  871   0.941   1.152   7.713
   23PC      HS  872   0.894   1.037   7.849
   23PC      C2  873   1.108   1.057   7.817
   23PC      HX  874   1.140   0.960   7.857
   23PC      C3  875   1.114   1.161   7.928
   23PC      HA  876   1.218   1.161   7.961
   23PC      HB  877   1.091   1.263   7.895
   23PC     O31  878   1.038   1.122   8.039
   23PC     P31  879   1.104   1.037   8.159
   23PC     O32  880   1.187   1.134   8.250
   23PC     C31  881   1.127   1.208   8.365
   23PC     H1A  882   1.197   1.290   8.387
   23PC     H1B  883   1.034   1.249   8.325
   23PC     C32  884   1.096   1.120   8.486
   23PC     H2A  885   1.031   1.038   8.455
   23PC     H2B  886   1.184   1.064   8.516
   23PC     N31  887   1.033   1.185   8.606
   23PC     C33  888   0.926   1.280   8.569
   23PC     H3A  889   0.871   1.226   8.492
   23PC     H3B  890   0.970   1.365   8.516
   23PC     H3C  891   0.865   1.303   8.657
   23PC     C34  892   1.134   1.250   8.686
   23PC     H4A  893   1.207   1.183   8.731
   23PC     H4B  894   1.080   1.310   8.759
   23PC     H4C  895   1.186   1.321   8.621
   23PC     C35  896   0.971   1.078   8.695
   23PC     H5A  897   0.910   1.016   8.629
   23PC     H5B  898   0.908   1.124   8.772
   23PC     H5C  899   1.048   1.018   8.742
   23PC     O33  900   0.992   0.966   8.230
   23PC     O34  901   1.201   0.941   8.100
   23PC     O21  902   1.197   1.092   7.709
   23PC     C21  903   1.317   1.042   7.691
   23PC     O22  904   1.375   0.962   7.758
   24MY    H14T  905   0.822   1.473   6.584
   24MY    C114  906   0.839   1.558   6.517
   24MY    H14R  907   0.803   1.529   6.418
   24MY    H14S  908   0.776   1.638   6.556
   24MY    C113  909   0.988   1.597   6.513
   24MY    H13R  910   1.001   1.658   6.423
   24MY    H13S  911   1.008   1.650   6.606
   24MY    C112  912   1.094   1.488   6.483
   24MY    H12R  913   1.065   1.426   6.398
   24MY    H12S  914   1.192   1.528   6.456
   24MY    C111  915   1.117   1.395   6.609
   24MY    H11R  916   1.174   1.457   6.679
   24MY    H11S  917   1.022   1.370   6.657
   24MY    C110  918   1.207   1.275   6.584
   24MY    H10R  919   1.172   1.224   6.494
   24MY    H10S  920   1.304   1.321   6.564
   24MY     C19  921   1.212   1.179   6.701
   24MY     H9R  922   1.112   1.146   6.731
   24MY     H9S  923   1.264   1.094   6.656
   24MY     C18  924   1.292   1.233   6.821
   24MY     H8R  925   1.399   1.235   6.797
   24MY     H8S  926   1.267   1.336   6.849
   24MY     C17  927   1.278   1.135   6.938
   24MY     H7R  928   1.172   1.119   6.956
   24MY     H7S  929   1.325   1.039   6.918
   24MY     C16  930   1.344   1.179   7.071
   24MY     H6R  931   1.453   1.179   7.062
   24MY     H6S  932   1.326   1.286   7.081
   24MY     C15  933   1.291   1.096   7.190
   24MY     H5R  934   1.184   1.114   7.200
   24MY     H5S  935   1.304   0.991   7.163
   24MY     C14  936   1.362   1.127   7.321
   24MY     H4R  937   1.456   1.072   7.316
   24MY     H4S  938   1.377   1.235   7.328
   24MY     C13  939   1.295   1.063   7.442
   24MY     H3R  940   1.191   1.094   7.457
   24MY     H3S  941   1.296   0.953   7.437
   24MY     C12  942   1.381   1.098   7.566
   24MY     H2R  943   1.486   1.069   7.554
   24MY     H2S  944   1.385   1.205   7.588
   25MY    H14T  945   5.223   1.869   6.663
   25MY    C114  946   5.276   1.963   6.649
   25MY    H14R  947   5.312   1.968   6.546
   25MY    H14S  948   5.203   2.040   6.675
   25MY    C113  949   5.390   1.972   6.744
   25MY    H13R  950   5.365   1.922   6.838
   25MY    H13S  951   5.463   1.902   6.704
   25MY    C112  952   5.451   2.116   6.761
   25MY    H12R  953   5.497   2.154   6.669
   25MY    H12S  954   5.370   2.186   6.782
   25MY    C111  955   5.550   2.119   6.875
   25MY    H11R  956   5.560   2.224   6.902
   25MY    H11S  957   5.513   2.049   6.951
   25MY    C110  958   5.687   2.069   6.836
   25MY    H10R  959   5.682   1.964   6.808
   25MY    H10S  960   5.729   2.123   6.751
   25MY     C19  961   5.785   2.084   6.956
   25MY     H9R  962   5.787   2.190   6.983
   25MY     H9S  963   5.735   2.033   7.039
   25MY     C18  964   5.918   2.018   6.915
   25MY     H8R  965   5.900   1.929   6.854
   25MY     H8S  966   5.987   2.086   6.864
   25MY     C17  967   5.990   1.973   7.050
   25MY     H7R  968   5.995   2.060   7.116
   25MY     H7S  969   5.926   1.900   7.097
   25MY     C16  970   6.136   1.915   7.041
   25MY     H6R  971   6.185   2.001   6.994
   25MY     H6S  972   6.183   1.907   7.139
   25MY     C15  973   6.163   1.787   6.958
   25MY     H5R  974   6.153   1.810   6.852
   25MY     H5S  975   6.266   1.751   6.969
   25MY     C14  976   6.073   1.667   6.987
   25MY     H4R  977   5.974   1.712   6.995
   25MY     H4S  978   6.070   1.615   6.892
   25MY     C13  979   6.109   1.575   7.107
   25MY     H3R  980   6.075   1.621   7.200
   25MY     H3S  981   6.056   1.481   7.095
   25MY     C12  982   6.260   1.544   7.117
   25MY     H2R  983   6.302   1.506   7.024
   25MY     H2S  984   6.307   1.638   7.145
   26PC     C11  985   6.299   1.440   7.217
   26PC     O12  986   6.278   1.457   7.332
   26PC     O11  987   6.356   1.329   7.166
   26PC      C1  988   6.402   1.226   7.252
   26PC      HR  989   6.467   1.153   7.204
   26PC      HS  990   6.445   1.275   7.340
   26PC      C2  991   6.279   1.143   7.313
   26PC      HX  992   6.222   1.205   7.382
   26PC      C3  993   6.336   1.014   7.382
   26PC      HA  994   6.253   0.979   7.444
   26PC      HB  995   6.364   0.937   7.310
   26PC     O31  996   6.451   1.034   7.469
   26PC     P31  997   6.434   1.079   7.620
   26PC     O32  998   6.438   0.945   7.712
   26PC     C31  999   6.312   0.873   7.740
   26PC     H1A 1000   6.252   0.946   7.795
   26PC     H1B 1001   6.260   0.847   7.647
   26PC     C32 1002   6.347   0.745   7.819
   26PC     H2A 1003   6.258   0.682   7.821
   26PC     H2B 1004   6.430   0.695   7.768
   26PC     N31 1005   6.398   0.753   7.964
   26PC     C33 1006   6.430   0.617   8.010
   26PC     H3A 1007   6.329   0.578   8.022
   26PC     H3B 1008   6.489   0.629   8.101
   26PC     H3C 1009   6.491   0.564   7.937
   26PC     C34 1010   6.291   0.801   8.049
   26PC     H4A 1011   6.326   0.800   8.153
   26PC     H4B 1012   6.210   0.728   8.047
   26PC     H4C 1013   6.261   0.900   8.016
   26PC     C35 1014   6.521   0.840   7.976
   26PC     H5A 1015   6.480   0.942   7.971
   26PC     H5B 1016   6.585   0.830   7.888
   26PC     H5C 1017   6.583   0.821   8.064
   26PC     O33 1018   6.556   1.149   7.675
   26PC     O34 1019   6.303   1.145   7.626
   26PC     O21 1020   6.190   1.094   7.207
   26PC     C21 1021   6.067   1.148   7.199
   26PC     O22 1022   6.045   1.257   7.248
   27MY    H14T 1023   5.356   1.192   6.266
   27MY    C114 1024   5.425   1.110   6.286
   27MY    H14R 1025   5.478   1.083   6.194
   27MY    H14S 1026   5.497   1.164   6.346
   27MY    C113 1027   5.362   0.996   6.354
   27MY    H13R 1028   5.306   1.023   6.443
   27MY    H13S 1029   5.283   0.972   6.283
   27MY    C112 1030   5.452   0.863   6.371
   27MY    H12R 1031   5.488   0.831   6.273
   27MY    H12S 1032   5.539   0.904   6.425
   27MY    C111 1033   5.391   0.739   6.445
   27MY    H11R 1034   5.305   0.701   6.389
   27MY    H11S 1035   5.460   0.655   6.450
   27MY    C110 1036   5.327   0.775   6.577
   27MY    H10R 1037   5.233   0.827   6.559
   27MY    H10S 1038   5.300   0.683   6.628
   27MY     C19 1039   5.417   0.847   6.678
   27MY     H9R 1040   5.512   0.794   6.684
   27MY     H9S 1041   5.434   0.947   6.637
   27MY     C18 1042   5.368   0.854   6.825
   27MY     H8R 1043   5.279   0.915   6.841
   27MY     H8S 1044   5.337   0.753   6.853
   27MY     C17 1045   5.475   0.895   6.931
   27MY     H7R 1046   5.432   0.930   7.025
   27MY     H7S 1047   5.536   0.807   6.953
   27MY     C16 1048   5.574   1.003   6.883
   27MY     H6R 1049   5.606   0.983   6.781
   27MY     H6S 1050   5.521   1.099   6.888
   27MY     C15 1051   5.696   1.004   6.979
   27MY     H5R 1052   5.669   1.036   7.080
   27MY     H5S 1053   5.736   0.902   6.978
   27MY     C14 1054   5.793   1.102   6.917
   27MY     H4R 1055   5.836   1.049   6.832
   27MY     H4S 1056   5.742   1.190   6.875
   27MY     C13 1057   5.891   1.168   7.020
   27MY     H3R 1058   5.973   1.221   6.972
   27MY     H3S 1059   5.832   1.246   7.070
   27MY     C12 1060   5.968   1.070   7.122
   27MY     H2R 1061   5.903   1.005   7.180
   27MY     H2S 1062   6.029   1.005   7.059
   28MY    H14T 1063   4.242   4.122   6.472
   28MY    C114 1064   4.231   4.017   6.442
   28MY    H14R 1065   4.126   3.991   6.426
   28MY    H14S 1066   4.281   3.993   6.348
   28MY    C113 1067   4.283   3.929   6.556
   28MY    H13R 1068   4.243   3.972   6.648
   28MY    H13S 1069   4.233   3.833   6.549
   28MY    C112 1070   4.435   3.917   6.553
   28MY    H12R 1071   4.469   3.868   6.462
   28MY    H12S 1072   4.486   4.013   6.562
   28MY    C111 1073   4.482   3.828   6.669
   28MY    H11R 1074   4.461   3.867   6.769
   28MY    H11S 1075   4.419   3.739   6.672
   28MY    C110 1076   4.628   3.788   6.646
   28MY    H10R 1077   4.657   3.768   6.543
   28MY    H10S 1078   4.700   3.866   6.669
   28MY     C19 1079   4.652   3.656   6.725
   28MY     H9R 1080   4.583   3.576   6.696
   28MY     H9S 1081   4.753   3.622   6.703
   28MY     C18 1082   4.636   3.674   6.883
   28MY     H8R 1083   4.730   3.720   6.916
   28MY     H8S 1084   4.549   3.731   6.916
   28MY     C17 1085   4.638   3.539   6.950
   28MY     H7R 1086   4.669   3.460   6.881
   28MY     H7S 1087   4.713   3.538   7.029
   28MY     C16 1088   4.501   3.495   7.002
   28MY     H6R 1089   4.454   3.577   7.058
   28MY     H6S 1090   4.435   3.479   6.917
   28MY     C15 1091   4.500   3.360   7.074
   28MY     H5R 1092   4.399   3.329   7.100
   28MY     H5S 1093   4.543   3.291   7.002
   28MY     C14 1094   4.576   3.363   7.210
   28MY     H4R 1095   4.677   3.402   7.196
   28MY     H4S 1096   4.523   3.442   7.262
   28MY     C13 1097   4.579   3.232   7.291
   28MY     H3R 1098   4.620   3.260   7.388
   28MY     H3S 1099   4.475   3.197   7.299
   28MY     C12 1100   4.665   3.115   7.236
   28MY     H2R 1101   4.624   3.087   7.139
   28MY     H2S 1102   4.768   3.146   7.220
   29PC     C11 1103   4.667   3.000   7.327
   29PC     O12 1104   4.655   3.015   7.446
   29PC     O11 1105   4.666   2.880   7.264
   29PC      C1 1106   4.652   2.764   7.353
   29PC      HR 1107   4.690   2.683   7.290
   29PC      HS 1108   4.718   2.776   7.439
   29PC      C2 1109   4.510   2.731   7.389
   29PC      HX 1110   4.473   2.799   7.467
   29PC      C3 1111   4.506   2.597   7.465
   29PC      HA 1112   4.407   2.595   7.510
   29PC      HB 1113   4.514   2.514   7.395
   29PC     O31 1114   4.619   2.575   7.556
   29PC     P31 1115   4.610   2.625   7.701
   29PC     O32 1116   4.663   2.772   7.683
   29PC     C31 1117   4.806   2.794   7.691
   29PC     H1A 1118   4.863   2.704   7.667
   29PC     H1B 1119   4.827   2.876   7.622
   29PC     C32 1120   4.836   2.853   7.829
   29PC     H2A 1121   4.811   2.774   7.900
   29PC     H2B 1122   4.943   2.868   7.842
   29PC     N31 1123   4.767   2.984   7.870
   29PC     C33 1124   4.769   3.088   7.759
   29PC     H3A 1125   4.872   3.110   7.731
   29PC     H3B 1126   4.727   3.183   7.793
   29PC     H3C 1127   4.717   3.061   7.667
   29PC     C34 1128   4.842   3.051   7.976
   29PC     H4A 1129   4.857   2.984   8.061
   29PC     H4B 1130   4.776   3.131   8.011
   29PC     H4C 1131   4.934   3.091   7.933
   29PC     C35 1132   4.629   2.974   7.916
   29PC     H5A 1133   4.616   2.885   7.978
   29PC     H5B 1134   4.568   2.959   7.826
   29PC     H5C 1135   4.597   3.061   7.973
   29PC     O33 1136   4.469   2.633   7.739
   29PC     O34 1137   4.697   2.545   7.787
   29PC     O21 1138   4.421   2.730   7.272
   29PC     C21 1139   4.342   2.838   7.260
   29PC     O22 1140   4.342   2.934   7.330
   30MY    H14T 1141   3.169   2.931   6.366
   30MY    C114 1142   3.161   2.833   6.317
   30MY    H14R 1143   3.072   2.779   6.349
   30MY    H14S 1144   3.156   2.863   6.212
   30MY    C113 1145   3.289   2.750   6.355
   30MY    H13R 1146   3.282   2.730   6.462
   30MY    H13S 1147   3.283   2.652   6.307
   30MY    C112 1148   3.425   2.819   6.329
   30MY    H12R 1149   3.488   2.751   6.272
   30MY    H12S 1150   3.409   2.906   6.264
   30MY    C111 1151   3.495   2.860   6.458
   30MY    H11R 1152   3.566   2.940   6.436
   30MY    H11S 1153   3.432   2.918   6.526
   30MY    C110 1154   3.561   2.742   6.531
   30MY    H10R 1155   3.482   2.667   6.537
   30MY    H10S 1156   3.635   2.693   6.468
   30MY     C19 1157   3.622   2.777   6.668
   30MY     H9R 1158   3.553   2.829   6.735
   30MY     H9S 1159   3.651   2.687   6.722
   30MY     C18 1160   3.740   2.875   6.661
   30MY     H8R 1161   3.818   2.857   6.586
   30MY     H8S 1162   3.692   2.968   6.629
   30MY     C17 1163   3.819   2.894   6.793
   30MY     H7R 1164   3.753   2.930   6.871
   30MY     H7S 1165   3.853   2.795   6.825
   30MY     C16 1166   3.945   2.987   6.769
   30MY     H6R 1167   4.008   2.933   6.698
   30MY     H6S 1168   3.912   3.078   6.718
   30MY     C15 1169   4.031   3.027   6.889
   30MY     H5R 1170   4.116   3.091   6.860
   30MY     H5S 1171   3.984   3.089   6.966
   30MY     C14 1172   4.097   2.907   6.962
   30MY     H4R 1173   4.029   2.826   6.989
   30MY     H4S 1174   4.162   2.864   6.886
   30MY     C13 1175   4.194   2.944   7.083
   30MY     H3R 1176   4.274   3.007   7.044
   30MY     H3S 1177   4.142   3.001   7.160
   30MY     C12 1178   4.248   2.813   7.148
   30MY     H2R 1179   4.167   2.747   7.179
   30MY     H2S 1180   4.302   2.763   7.067
   31MY    H14T 1181   6.147   1.926   6.410
   31MY    C114 1182   6.125   2.017   6.466
   31MY    H14R 1183   6.165   2.108   6.419
   31MY    H14S 1184   6.020   2.027   6.495
   31MY    C113 1185   6.199   2.009   6.607
   31MY    H13R 1186   6.153   2.082   6.674
   31MY    H13S 1187   6.181   1.911   6.650
   31MY    C112 1188   6.349   2.029   6.582
   31MY    H12R 1189   6.348   2.133   6.550
   31MY    H12S 1190   6.397   2.012   6.679
   31MY    C111 1191   6.415   1.945   6.467
   31MY    H11R 1192   6.370   1.970   6.371
   31MY    H11S 1193   6.521   1.968   6.455
   31MY    C110 1194   6.416   1.792   6.504
   31MY    H10R 1195   6.322   1.738   6.496
   31MY    H10S 1196   6.485   1.739   6.437
   31MY     C19 1197   6.464   1.769   6.653
   31MY     H9R 1198   6.551   1.831   6.672
   31MY     H9S 1199   6.375   1.790   6.713
   31MY     C18 1200   6.493   1.622   6.667
   31MY     H8R 1201   6.396   1.572   6.664
   31MY     H8S 1202   6.562   1.575   6.597
   31MY     C17 1203   6.546   1.591   6.810
   31MY     H7R 1204   6.492   1.640   6.890
   31MY     H7S 1205   6.550   1.482   6.819
   31MY     C16 1206   6.690   1.641   6.824
   31MY     H6R 1207   6.746   1.623   6.732
   31MY     H6S 1208   6.703   1.749   6.833
   31MY     C15 1209   6.751   1.582   6.953
   31MY     H5R 1210   6.684   1.607   7.035
   31MY     H5S 1211   6.751   1.473   6.951
   31MY     C14 1212   6.892   1.625   6.980
   31MY     H4R 1213   6.956   1.582   6.903
   31MY     H4S 1214   6.899   1.733   6.966
   31MY     C13 1215   6.936   1.595   7.123
   31MY     H3R 1216   6.887   1.661   7.195
   31MY     H3S 1217   6.906   1.496   7.160
   31MY     C12 1218   7.088   1.607   7.149
   31MY     H2R 1219   7.145   1.530   7.097
   31MY     H2S 1220   7.122   1.706   7.117
   32PC     C11 1221   7.118   1.614   7.298
   32PC     O12 1222   7.068   1.694   7.372
   32PC     O11 1223   7.216   1.524   7.331
   32PC      C1 1224   7.265   1.525   7.468
   32PC      HR 1225   7.367   1.486   7.465
   32PC      HS 1226   7.280   1.627   7.504
   32PC      C2 1227   7.176   1.457   7.576
   32PC      HX 1228   7.073   1.494   7.573
   32PC      C3 1229   7.225   1.465   7.723
   32PC      HA 1230   7.322   1.415   7.730
   32PC      HB 1231   7.227   1.569   7.756
   32PC     O31 1232   7.121   1.396   7.803
   32PC     P31 1233   7.002   1.475   7.879
   32PC     O32 1234   6.890   1.513   7.765
   32PC     C31 1235   6.797   1.406   7.719
   32PC     H1A 1236   6.855   1.319   7.686
   32PC     H1B 1237   6.731   1.371   7.799
   32PC     C32 1238   6.730   1.464   7.595
   32PC     H2A 1239   6.812   1.512   7.542
   32PC     H2B 1240   6.693   1.379   7.538
   32PC     N31 1241   6.612   1.553   7.603
   32PC     C33 1242   6.502   1.461   7.645
   32PC     H3A 1243   6.536   1.415   7.738
   32PC     H3B 1244   6.476   1.389   7.568
   32PC     H3C 1245   6.413   1.525   7.651
   32PC     C34 1246   6.583   1.613   7.470
   32PC     H4A 1247   6.661   1.688   7.459
   32PC     H4B 1248   6.480   1.650   7.469
   32PC     H4C 1249   6.600   1.538   7.392
   32PC     C35 1250   6.626   1.656   7.709
   32PC     H5A 1251   6.609   1.616   7.809
   32PC     H5B 1252   6.544   1.727   7.700
   32PC     H5C 1253   6.723   1.703   7.691
   32PC     O33 1254   6.939   1.387   7.983
   32PC     O34 1255   7.052   1.606   7.925
   32PC     O21 1256   7.182   1.318   7.526
   32PC     C21 1257   7.072   1.267   7.462
   32PC     O22 1258   6.968   1.333   7.452
   33MY    H14T 1259   6.407   1.242   6.252
   33MY    C114 1260   6.370   1.203   6.348
   33MY    H14R 1261   6.344   1.284   6.417
   33MY    H14S 1262   6.276   1.149   6.338
   33MY    C113 1263   6.463   1.119   6.429
   33MY    H13R 1264   6.416   1.111   6.527
   33MY    H13S 1265   6.472   1.019   6.385
   33MY    C112 1266   6.615   1.167   6.454
   33MY    H12R 1267   6.658   1.089   6.517
   33MY    H12S 1268   6.669   1.162   6.359
   33MY    C111 1269   6.645   1.300   6.521
   33MY    H11R 1270   6.581   1.372   6.469
   33MY    H11S 1271   6.613   1.298   6.626
   33MY    C110 1272   6.800   1.334   6.525
   33MY    H10R 1273   6.841   1.352   6.426
   33MY    H10S 1274   6.819   1.426   6.580
   33MY     C19 1275   6.884   1.221   6.578
   33MY     H9R 1276   6.875   1.123   6.532
   33MY     H9S 1277   6.989   1.250   6.566
   33MY     C18 1278   6.864   1.188   6.727
   33MY     H8R 1279   6.778   1.235   6.774
   33MY     H8S 1280   6.852   1.081   6.748
   33MY     C17 1281   6.982   1.232   6.821
   33MY     H7R 1282   7.074   1.182   6.789
   33MY     H7S 1283   7.004   1.337   6.802
   33MY     C16 1284   6.988   1.200   6.969
   33MY     H6R 1285   6.919   1.256   7.032
   33MY     H6S 1286   6.960   1.095   6.983
   33MY     C15 1287   7.129   1.238   7.020
   33MY     H5R 1288   7.198   1.160   6.986
   33MY     H5S 1289   7.164   1.327   6.968
   33MY     C14 1290   7.137   1.244   7.170
   33MY     H4R 1291   7.244   1.249   7.194
   33MY     H4S 1292   7.094   1.341   7.195
   33MY     C13 1293   7.067   1.129   7.251
   33MY     H3R 1294   6.958   1.129   7.237
   33MY     H3S 1295   7.101   1.030   7.220
   33MY     C12 1296   7.099   1.136   7.401
   33MY     H2R 1297   7.035   1.066   7.456
   33MY     H2S 1298   7.202   1.101   7.412
   34MY    H14T 1299  -0.028   3.011   6.231
   34MY    C114 1300   0.041   3.095   6.249
   34MY    H14R 1301   0.084   3.084   6.349
   34MY    H14S 1302   0.118   3.101   6.173
   34MY    C113 1303  -0.044   3.221   6.223
   34MY    H13R 1304  -0.051   3.219   6.114
   34MY    H13S 1305  -0.141   3.221   6.273
   34MY    C112 1306   0.039   3.348   6.260
   34MY    H12R 1307   0.127   3.356   6.195
   34MY    H12S 1308  -0.023   3.437   6.248
   34MY    C111 1309   0.057   3.343   6.415
   34MY    H11R 1310  -0.030   3.293   6.456
   34MY    H11S 1311   0.139   3.281   6.451
   34MY    C110 1312   0.068   3.489   6.466
   34MY    H10R 1313   0.159   3.543   6.440
   34MY    H10S 1314  -0.016   3.545   6.425
   34MY     C19 1315   0.078   3.500   6.623
   34MY     H9R 1316   0.159   3.433   6.654
   34MY     H9S 1317   0.104   3.598   6.663
   34MY     C18 1318  -0.046   3.459   6.705
   34MY     H8R 1319  -0.129   3.516   6.664
   34MY     H8S 1320  -0.063   3.352   6.689
   34MY     C17 1321  -0.015   3.498   6.850
   34MY     H7R 1322   0.081   3.459   6.886
   34MY     H7S 1323  -0.009   3.606   6.855
   34MY     C16 1324  -0.124   3.441   6.948
   34MY     H6R 1325  -0.226   3.464   6.916
   34MY     H6S 1326  -0.106   3.334   6.950
   34MY     C15 1327  -0.104   3.502   7.092
   34MY     H5R 1328  -0.013   3.461   7.137
   34MY     H5S 1329  -0.083   3.609   7.082
   34MY     C14 1330  -0.237   3.485   7.174
   34MY     H4R 1331  -0.230   3.555   7.258
   34MY     H4S 1332  -0.323   3.527   7.122
   34MY     C13 1333  -0.263   3.340   7.219
   34MY     H3R 1334  -0.292   3.277   7.135
   34MY     H3S 1335  -0.175   3.295   7.266
   34MY     C12 1336  -0.384   3.324   7.317
   34MY     H2R 1337  -0.476   3.351   7.265
   34MY     H2S 1338  -0.387   3.216   7.334
   35PC     C11 1339  -0.375   3.384   7.456
   35PC     O12 1340  -0.290   3.459   7.496
   35PC     O11 1341  -0.471   3.335   7.537
   35PC      C1 1342  -0.495   3.403   7.664
   35PC      HR 1343  -0.563   3.341   7.722
   35PC      HS 1344  -0.399   3.406   7.717
   35PC      C2 1345  -0.565   3.538   7.641
   35PC      HX 1346  -0.486   3.605   7.605
   35PC      C3 1347  -0.624   3.584   7.780
   35PC      HA 1348  -0.548   3.574   7.857
   35PC      HB 1349  -0.659   3.687   7.782
   35PC     O31 1350  -0.729   3.492   7.817
   35PC     P31 1351  -0.720   3.415   7.955
   35PC     O32 1352  -0.774   3.527   8.059
   35PC     C31 1353  -0.898   3.505   8.131
   35PC     H1A 1354  -0.977   3.496   8.056
   35PC     H1B 1355  -0.897   3.418   8.197
   35PC     C32 1356  -0.929   3.628   8.207
   35PC     H2A 1357  -0.844   3.667   8.263
   35PC     H2B 1358  -0.954   3.710   8.139
   35PC     N31 1359  -1.054   3.627   8.298
   35PC     C33 1360  -1.038   3.520   8.403
   35PC     H3A 1361  -1.097   3.545   8.491
   35PC     H3B 1362  -0.934   3.519   8.438
   35PC     H3C 1363  -1.077   3.428   8.359
   35PC     C34 1364  -1.178   3.603   8.212
   35PC     H4A 1365  -1.181   3.498   8.183
   35PC     H4B 1366  -1.172   3.665   8.122
   35PC     H4C 1367  -1.270   3.625   8.265
   35PC     C35 1368  -1.074   3.749   8.374
   35PC     H5A 1369  -1.148   3.724   8.450
   35PC     H5B 1370  -1.115   3.828   8.312
   35PC     H5C 1371  -0.974   3.778   8.407
   35PC     O33 1372  -0.827   3.310   7.940
   35PC     O34 1373  -0.585   3.371   7.984
   35PC     O21 1374  -0.673   3.524   7.541
   35PC     C21 1375  -0.665   3.573   7.411
   35PC     O22 1376  -0.566   3.632   7.370
   36MY    H14T 1377  -0.458   3.990   6.229
   36MY    C114 1378  -0.560   4.003   6.193
   36MY    H14R 1379  -0.617   4.047   6.276
   36MY    H14S 1380  -0.561   4.078   6.114
   36MY    C113 1381  -0.617   3.868   6.135
   36MY    H13R 1382  -0.714   3.887   6.090
   36MY    H13S 1383  -0.559   3.830   6.050
   36MY    C112 1384  -0.626   3.768   6.249
   36MY    H12R 1385  -0.626   3.669   6.204
   36MY    H12S 1386  -0.538   3.766   6.315
   36MY    C111 1387  -0.760   3.794   6.325
   36MY    H11R 1388  -0.758   3.902   6.344
   36MY    H11S 1389  -0.845   3.773   6.259
   36MY    C110 1390  -0.769   3.718   6.452
   36MY    H10R 1391  -0.866   3.737   6.498
   36MY    H10S 1392  -0.752   3.614   6.424
   36MY     C19 1393  -0.662   3.756   6.559
   36MY     H9R 1394  -0.560   3.724   6.540
   36MY     H9S 1395  -0.664   3.862   6.584
   36MY     C18 1396  -0.697   3.688   6.698
   36MY     H8R 1397  -0.617   3.713   6.769
   36MY     H8S 1398  -0.790   3.736   6.730
   36MY     C17 1399  -0.717   3.542   6.701
   36MY     H7R 1400  -0.798   3.517   6.632
   36MY     H7S 1401  -0.623   3.494   6.674
   36MY     C16 1402  -0.749   3.488   6.849
   36MY     H6R 1403  -0.839   3.533   6.892
   36MY     H6S 1404  -0.773   3.382   6.846
   36MY     C15 1405  -0.636   3.518   6.946
   36MY     H5R 1406  -0.555   3.453   6.913
   36MY     H5S 1407  -0.591   3.616   6.933
   36MY     C14 1408  -0.661   3.476   7.095
   36MY     H4R 1409  -0.697   3.373   7.107
   36MY     H4S 1410  -0.568   3.469   7.151
   36MY     C13 1411  -0.753   3.579   7.174
   36MY     H3R 1412  -0.697   3.672   7.163
   36MY     H3S 1413  -0.852   3.590   7.129
   36MY     C12 1414  -0.778   3.533   7.325
   36MY     H2R 1415  -0.869   3.573   7.369
   36MY     H2S 1416  -0.798   3.426   7.335
   37MY    H14T 1417   6.125   0.338   5.920
   37MY    C114 1418   6.016   0.334   5.908
   37MY    H14R 1419   5.994   0.412   5.835
   37MY    H14S 1420   5.993   0.233   5.872
   37MY    C113 1421   5.948   0.352   6.041
   37MY    H13R 1422   5.843   0.362   6.012
   37MY    H13S 1423   5.953   0.266   6.108
   37MY    C112 1424   5.987   0.476   6.117
   37MY    H12R 1425   5.969   0.561   6.051
   37MY    H12S 1426   5.917   0.483   6.200
   37MY    C111 1427   6.132   0.468   6.167
   37MY    H11R 1428   6.143   0.374   6.222
   37MY    H11S 1429   6.199   0.464   6.082
   37MY    C110 1430   6.174   0.588   6.256
   37MY    H10R 1431   6.142   0.678   6.203
   37MY    H10S 1432   6.111   0.593   6.345
   37MY     C19 1433   6.315   0.591   6.315
   37MY     H9R 1434   6.332   0.500   6.373
   37MY     H9S 1435   6.388   0.586   6.234
   37MY     C18 1436   6.344   0.717   6.403
   37MY     H8R 1437   6.448   0.717   6.436
   37MY     H8S 1438   6.328   0.807   6.343
   37MY     C17 1439   6.263   0.719   6.527
   37MY     H7R 1440   6.156   0.719   6.505
   37MY     H7S 1441   6.289   0.635   6.593
   37MY     C16 1442   6.285   0.855   6.594
   37MY     H6R 1443   6.389   0.877   6.620
   37MY     H6S 1444   6.266   0.931   6.518
   37MY     C15 1445   6.193   0.883   6.717
   37MY     H5R 1446   6.211   0.980   6.764
   37MY     H5S 1447   6.087   0.891   6.690
   37MY     C14 1448   6.218   0.768   6.822
   37MY     H4R 1449   6.158   0.680   6.801
   37MY     H4S 1450   6.323   0.738   6.814
   37MY     C13 1451   6.187   0.789   6.974
   37MY     H3R 1452   6.220   0.887   7.010
   37MY     H3S 1453   6.078   0.782   6.984
   37MY     C12 1454   6.248   0.674   7.053
   37MY     H2R 1455   6.210   0.582   7.008
   37MY     H2S 1456   6.357   0.680   7.054
   38PC     C11 1457   6.208   0.673   7.201
   38PC     O12 1458   6.123   0.745   7.246
   38PC     O11 1459   6.292   0.601   7.284
   38PC      C1 1460   6.262   0.600   7.427
   38PC      HR 1461   6.349   0.558   7.478
   38PC      HS 1462   6.242   0.700   7.466
   38PC      C2 1463   6.133   0.510   7.467
   38PC      HX 1464   6.047   0.550   7.411
   38PC      C3 1465   6.110   0.539   7.620
   38PC      HA 1466   6.033   0.470   7.657
   38PC      HB 1467   6.196   0.533   7.687
   38PC     O31 1468   6.054   0.670   7.624
   38PC     P31 1469   5.979   0.730   7.745
   38PC     O32 1470   5.829   0.680   7.723
   38PC     C31 1471   5.745   0.739   7.634
   38PC     H1A 1472   5.784   0.827   7.582
   38PC     H1B 1473   5.716   0.665   7.558
   38PC     C32 1474   5.618   0.775   7.712
   38PC     H2A 1475   5.541   0.814   7.645
   38PC     H2B 1476   5.581   0.683   7.758
   38PC     N31 1477   5.630   0.880   7.824
   38PC     C33 1478   5.684   0.818   7.949
   38PC     H3A 1479   5.633   0.729   7.985
   38PC     H3B 1480   5.688   0.888   8.032
   38PC     H3C 1481   5.787   0.797   7.918
   38PC     C34 1482   5.491   0.910   7.855
   38PC     H4A 1483   5.453   0.964   7.769
   38PC     H4B 1484   5.480   0.976   7.942
   38PC     H4C 1485   5.446   0.812   7.874
   38PC     C35 1486   5.700   1.004   7.787
   38PC     H5A 1487   5.675   1.085   7.856
   38PC     H5B 1488   5.664   1.039   7.690
   38PC     H5C 1489   5.808   0.993   7.791
   38PC     O33 1490   6.042   0.670   7.861
   38PC     O34 1491   5.982   0.882   7.735
   38PC     O21 1492   6.158   0.368   7.431
   38PC     C21 1493   6.155   0.333   7.303
   38PC     O22 1494   6.115   0.400   7.212
   39MY    H14T 1495   6.779   0.257   6.159
   39MY    C114 1496   6.734   0.172   6.211
   39MY    H14R 1497   6.723   0.093   6.137
   39MY    H14S 1498   6.800   0.135   6.291
   39MY    C113 1499   6.601   0.230   6.271
   39MY    H13R 1500   6.626   0.326   6.317
   39MY    H13S 1501   6.514   0.240   6.205
   39MY    C112 1502   6.556   0.146   6.396
   39MY    H12R 1503   6.513   0.051   6.362
   39MY    H12S 1504   6.637   0.115   6.463
   39MY    C111 1505   6.438   0.194   6.475
   39MY    H11R 1506   6.468   0.286   6.525
   39MY    H11S 1507   6.363   0.214   6.398
   39MY    C110 1508   6.391   0.089   6.583
   39MY    H10R 1509   6.397  -0.009   6.535
   39MY    H10S 1510   6.458   0.086   6.669
   39MY     C19 1511   6.257   0.122   6.641
   39MY     H9R 1512   6.267   0.213   6.701
   39MY     H9S 1513   6.192   0.150   6.559
   39MY     C18 1514   6.195   0.005   6.722
   39MY     H8R 1515   6.095   0.037   6.751
   39MY     H8S 1516   6.202  -0.081   6.656
   39MY     C17 1517   6.266  -0.029   6.854
   39MY     H7R 1518   6.206  -0.103   6.908
   39MY     H7S 1519   6.355  -0.082   6.820
   39MY     C16 1520   6.302   0.084   6.944
   39MY     H6R 1521   6.335   0.035   7.035
   39MY     H6S 1522   6.391   0.131   6.902
   39MY     C15 1523   6.189   0.186   6.970
   39MY     H5R 1524   6.225   0.275   7.021
   39MY     H5S 1525   6.158   0.222   6.872
   39MY     C14 1526   6.068   0.136   7.057
   39MY     H4R 1527   5.997   0.219   7.065
   39MY     H4S 1528   6.003   0.060   7.013
   39MY     C13 1529   6.111   0.093   7.203
   39MY     H3R 1530   6.021   0.069   7.260
   39MY     H3S 1531   6.159  -0.004   7.194
   39MY     C12 1532   6.204   0.195   7.284
   39MY     H2R 1533   6.244   0.155   7.377
   39MY     H2S 1534   6.294   0.208   7.223
   40MY    H14T 1535   3.529   5.909   6.472
   40MY    C114 1536   3.494   5.864   6.378
   40MY    H14R 1537   3.575   5.868   6.305
   40MY    H14S 1538   3.478   5.757   6.393
   40MY    C113 1539   3.364   5.921   6.330
   40MY    H13R 1540   3.330   5.860   6.246
   40MY    H13S 1541   3.288   5.931   6.408
   40MY    C112 1542   3.401   6.053   6.259
   40MY    H12R 1543   3.469   6.040   6.175
   40MY    H12S 1544   3.310   6.100   6.219
   40MY    C111 1545   3.440   6.162   6.362
   40MY    H11R 1546   3.539   6.132   6.398
   40MY    H11S 1547   3.436   6.265   6.328
   40MY    C110 1548   3.364   6.156   6.496
   40MY    H10R 1549   3.256   6.153   6.477
   40MY    H10S 1550   3.387   6.074   6.563
   40MY     C19 1551   3.393   6.290   6.581
   40MY     H9R 1552   3.498   6.291   6.611
   40MY     H9S 1553   3.385   6.374   6.512
   40MY     C18 1554   3.304   6.304   6.707
   40MY     H8R 1555   3.200   6.298   6.675
   40MY     H8S 1556   3.322   6.219   6.773
   40MY     C17 1557   3.337   6.432   6.785
   40MY     H7R 1558   3.436   6.424   6.830
   40MY     H7S 1559   3.341   6.512   6.710
   40MY     C16 1560   3.228   6.458   6.883
   40MY     H6R 1561   3.132   6.483   6.837
   40MY     H6S 1562   3.208   6.364   6.935
   40MY     C15 1563   3.259   6.562   6.989
   40MY     H5R 1564   3.356   6.538   7.033
   40MY     H5S 1565   3.271   6.659   6.941
   40MY     C14 1566   3.161   6.565   7.108
   40MY     H4R 1567   3.070   6.615   7.074
   40MY     H4S 1568   3.136   6.463   7.134
   40MY     C13 1569   3.214   6.644   7.226
   40MY     H3R 1570   3.320   6.624   7.238
   40MY     H3S 1571   3.196   6.751   7.218
   40MY     C12 1572   3.126   6.605   7.351
   40MY     H2R 1573   3.022   6.632   7.332
   40MY     H2S 1574   3.134   6.501   7.383
   41PC     C11 1575   3.168   6.681   7.474
   41PC     O12 1576   3.196   6.624   7.577
   41PC     O11 1577   3.167   6.810   7.456
   41PC      C1 1578   3.186   6.899   7.567
   41PC      HR 1579   3.142   6.997   7.547
   41PC      HS 1580   3.144   6.860   7.660
   41PC      C2 1581   3.339   6.926   7.587
   41PC      HX 1582   3.394   6.846   7.636
   41PC      C3 1583   3.359   7.051   7.680
   41PC      HA 1584   3.466   7.066   7.694
   41PC      HB 1585   3.316   7.141   7.634
   41PC     O31 1586   3.303   7.039   7.811
   41PC     P31 1587   3.390   6.975   7.924
   41PC     O32 1588   3.415   6.827   7.882
   41PC     C31 1589   3.317   6.723   7.905
   41PC     H1A 1590   3.263   6.744   7.997
   41PC     H1B 1591   3.246   6.727   7.822
   41PC     C32 1592   3.393   6.588   7.915
   41PC     H2A 1593   3.462   6.574   7.832
   41PC     H2B 1594   3.459   6.589   8.002
   41PC     N31 1595   3.315   6.459   7.930
   41PC     C33 1596   3.413   6.349   7.949
   41PC     H3A 1597   3.476   6.370   8.036
   41PC     H3B 1598   3.473   6.344   7.859
   41PC     H3C 1599   3.359   6.259   7.977
   41PC     C34 1600   3.239   6.423   7.811
   41PC     H4A 1601   3.163   6.501   7.810
   41PC     H4B 1602   3.195   6.325   7.829
   41PC     H4C 1603   3.300   6.417   7.721
   41PC     C35 1604   3.225   6.465   8.050
   41PC     H5A 1605   3.139   6.525   8.021
   41PC     H5B 1606   3.285   6.519   8.124
   41PC     H5C 1607   3.202   6.360   8.070
   41PC     O33 1608   3.519   7.046   7.931
   41PC     O34 1609   3.305   6.976   8.046
   41PC     O21 1610   3.416   6.947   7.462
   41PC     C21 1611   3.485   6.851   7.404
   41PC     O22 1612   3.457   6.735   7.413
   42MY    H14T 1613   4.129   6.254   6.139
   42MY    C114 1614   4.098   6.312   6.226
   42MY    H14R 1615   4.000   6.280   6.262
   42MY    H14S 1616   4.177   6.286   6.297
   42MY    C113 1617   4.099   6.467   6.188
   42MY    H13R 1618   4.194   6.488   6.139
   42MY    H13S 1619   4.021   6.492   6.115
   42MY    C112 1620   4.077   6.568   6.310
   42MY    H12R 1621   4.175   6.574   6.358
   42MY    H12S 1622   4.046   6.667   6.277
   42MY    C111 1623   3.978   6.516   6.410
   42MY    H11R 1624   3.883   6.498   6.359
   42MY    H11S 1625   4.020   6.420   6.438
   42MY    C110 1626   3.961   6.593   6.545
   42MY    H10R 1627   4.053   6.583   6.603
   42MY    H10S 1628   3.937   6.696   6.517
   42MY     C19 1629   3.845   6.546   6.617
   42MY     H9R 1630   3.757   6.558   6.553
   42MY     H9S 1631   3.841   6.439   6.639
   42MY     C18 1632   3.814   6.619   6.746
   42MY     H8R 1633   3.889   6.604   6.824
   42MY     H8S 1634   3.800   6.726   6.724
   42MY     C17 1635   3.679   6.578   6.808
   42MY     H7R 1636   3.590   6.597   6.746
   42MY     H7S 1637   3.679   6.471   6.830
   42MY     C16 1638   3.651   6.644   6.950
   42MY     H6R 1639   3.582   6.585   7.010
   42MY     H6S 1640   3.747   6.666   6.997
   42MY     C15 1641   3.590   6.778   6.924
   42MY     H5R 1642   3.628   6.820   6.831
   42MY     H5S 1643   3.484   6.757   6.909
   42MY     C14 1644   3.614   6.866   7.046
   42MY     H4R 1645   3.717   6.869   7.081
   42MY     H4S 1646   3.583   6.964   7.010
   42MY     C13 1647   3.530   6.817   7.161
   42MY     H3R 1648   3.426   6.846   7.141
   42MY     H3S 1649   3.536   6.708   7.167
   42MY     C12 1650   3.569   6.894   7.287
   42MY     H2R 1651   3.672   6.873   7.316
   42MY     H2S 1652   3.548   7.000   7.272
   43MY    H14T 1653   0.416   0.808   6.051
   43MY    C114 1654   0.454   0.726   6.113
   43MY    H14R 1655   0.375   0.654   6.093
   43MY    H14S 1656   0.554   0.698   6.078
   43MY    C113 1657   0.454   0.760   6.262
   43MY    H13R 1658   0.539   0.826   6.280
   43MY    H13S 1659   0.356   0.805   6.281
   43MY    C112 1660   0.461   0.634   6.344
   43MY    H12R 1661   0.378   0.570   6.315
   43MY    H12S 1662   0.547   0.574   6.315
   43MY    C111 1663   0.458   0.656   6.501
   43MY    H11R 1664   0.552   0.700   6.534
   43MY    H11S 1665   0.384   0.734   6.520
   43MY    C110 1666   0.421   0.520   6.567
   43MY    H10R 1667   0.316   0.495   6.550
   43MY    H10S 1668   0.492   0.442   6.541
   43MY     C19 1669   0.427   0.536   6.722
   43MY     H9R 1670   0.533   0.527   6.750
   43MY     H9S 1671   0.387   0.632   6.757
   43MY     C18 1672   0.357   0.440   6.813
   43MY     H8R 1673   0.248   0.445   6.802
   43MY     H8S 1674   0.386   0.340   6.781
   43MY     C17 1675   0.396   0.470   6.962
   43MY     H7R 1676   0.503   0.451   6.963
   43MY     H7S 1677   0.370   0.573   6.988
   43MY     C16 1678   0.331   0.365   7.056
   43MY     H6R 1679   0.223   0.373   7.049
   43MY     H6S 1680   0.353   0.263   7.024
   43MY     C15 1681   0.370   0.392   7.201
   43MY     H5R 1682   0.478   0.388   7.213
   43MY     H5S 1683   0.351   0.498   7.221
   43MY     C14 1684   0.296   0.306   7.310
   43MY     H4R 1685   0.195   0.347   7.304
   43MY     H4S 1686   0.308   0.200   7.285
   43MY     C13 1687   0.354   0.352   7.448
   43MY     H3R 1688   0.456   0.313   7.451
   43MY     H3S 1689   0.351   0.460   7.458
   43MY     C12 1690   0.254   0.302   7.554
   43MY     H2R 1691   0.156   0.344   7.532
   43MY     H2S 1692   0.235   0.195   7.565
   44PC     C11 1693   0.288   0.367   7.685
   44PC     O12 1694   0.252   0.474   7.722
   44PC     O11 1695   0.368   0.290   7.757
   44PC      C1 1696   0.432   0.326   7.885
   44PC      HR 1697   0.348   0.357   7.948
   44PC      HS 1698   0.485   0.236   7.917
   44PC      C2 1699   0.532   0.443   7.886
   44PC      HX 1700   0.625   0.412   7.836
   44PC      C3 1701   0.576   0.482   8.024
   44PC      HA 1702   0.645   0.409   8.067
   44PC      HB 1703   0.631   0.577   8.021
   44PC     O31 1704   0.462   0.513   8.111
   44PC     P31 1705   0.460   0.464   8.255
   44PC     O32 1706   0.541   0.580   8.330
   44PC     C31 1707   0.683   0.603   8.318
   44PC     H1A 1708   0.717   0.555   8.226
   44PC     H1B 1709   0.710   0.708   8.321
   44PC     C32 1710   0.745   0.540   8.447
   44PC     H2A 1711   0.702   0.441   8.463
   44PC     H2B 1712   0.854   0.528   8.447
   44PC     N31 1713   0.722   0.610   8.579
   44PC     C33 1714   0.581   0.630   8.616
   44PC     H3A 1715   0.529   0.536   8.634
   44PC     H3B 1716   0.542   0.680   8.527
   44PC     H3C 1717   0.579   0.698   8.701
   44PC     C34 1718   0.786   0.746   8.572
   44PC     H4A 1719   0.720   0.807   8.510
   44PC     H4B 1720   0.878   0.716   8.521
   44PC     H4C 1721   0.800   0.794   8.668
   44PC     C35 1722   0.782   0.532   8.681
   44PC     H5A 1723   0.732   0.435   8.683
   44PC     H5B 1724   0.764   0.587   8.774
   44PC     H5C 1725   0.883   0.514   8.644
   44PC     O33 1726   0.318   0.461   8.298
   44PC     O34 1727   0.529   0.335   8.253
   44PC     O21 1728   0.476   0.559   7.828
   44PC     C21 1729   0.541   0.621   7.727
   44PC     O22 1730   0.657   0.600   7.694
   45MY    H14T 1731  -0.188   1.365   6.568
   45MY    C114 1732  -0.151   1.438   6.641
   45MY    H14R 1733  -0.086   1.494   6.573
   45MY    H14S 1734  -0.224   1.511   6.674
   45MY    C113 1735  -0.096   1.357   6.762
   45MY    H13R 1736  -0.071   1.424   6.845
   45MY    H13S 1737  -0.171   1.287   6.799
   45MY    C112 1738   0.040   1.283   6.729
   45MY    H12R 1739   0.029   1.192   6.671
   45MY    H12S 1740   0.098   1.357   6.673
   45MY    C111 1741   0.119   1.241   6.854
   45MY    H11R 1742   0.160   1.325   6.911
   45MY    H11S 1743   0.048   1.199   6.927
   45MY    C110 1744   0.226   1.127   6.828
   45MY    H10R 1745   0.179   1.050   6.765
   45MY    H10S 1746   0.306   1.162   6.762
   45MY     C19 1747   0.277   1.067   6.960
   45MY     H9R 1748   0.347   1.139   7.003
   45MY     H9S 1749   0.205   1.044   7.039
   45MY     C18 1750   0.349   0.940   6.929
   45MY     H8R 1751   0.283   0.862   6.890
   45MY     H8S 1752   0.412   0.953   6.841
   45MY     C17 1753   0.445   0.883   7.036
   45MY     H7R 1754   0.480   0.794   6.982
   45MY     H7S 1755   0.529   0.952   7.051
   45MY     C16 1756   0.377   0.847   7.169
   45MY     H6R 1757   0.324   0.939   7.194
   45MY     H6S 1758   0.304   0.766   7.159
   45MY     C15 1759   0.482   0.798   7.267
   45MY     H5R 1760   0.521   0.699   7.241
   45MY     H5S 1761   0.566   0.868   7.264
   45MY     C14 1762   0.422   0.800   7.404
   45MY     H4R 1763   0.408   0.902   7.441
   45MY     H4S 1764   0.322   0.755   7.398
   45MY     C13 1765   0.503   0.718   7.502
   45MY     H3R 1766   0.506   0.614   7.469
   45MY     H3S 1767   0.609   0.747   7.505
   45MY     C12 1768   0.443   0.703   7.642
   45MY     H2R 1769   0.434   0.803   7.687
   45MY     H2S 1770   0.344   0.658   7.632
   46MY    H14T 1771   3.677   4.236   5.959
   46MY    C114 1772   3.670   4.132   5.993
   46MY    H14R 1773   3.589   4.091   5.931
   46MY    H14S 1774   3.765   4.082   5.973
   46MY    C113 1775   3.624   4.121   6.139
   46MY    H13R 1776   3.530   4.173   6.157
   46MY    H13S 1777   3.613   4.017   6.169
   46MY    C112 1778   3.726   4.175   6.240
   46MY    H12R 1779   3.821   4.124   6.223
   46MY    H12S 1780   3.730   4.282   6.218
   46MY    C111 1781   3.676   4.168   6.388
   46MY    H11R 1782   3.572   4.202   6.393
   46MY    H11S 1783   3.681   4.066   6.426
   46MY    C110 1784   3.756   4.258   6.485
   46MY    H10R 1785   3.860   4.224   6.488
   46MY    H10S 1786   3.752   4.361   6.449
   46MY     C19 1787   3.700   4.264   6.630
   46MY     H9R 1788   3.602   4.310   6.634
   46MY     H9S 1789   3.672   4.164   6.663
   46MY     C18 1790   3.801   4.333   6.716
   46MY     H8R 1791   3.901   4.297   6.693
   46MY     H8S 1792   3.807   4.437   6.684
   46MY     C17 1793   3.790   4.330   6.871
   46MY     H7R 1794   3.691   4.361   6.906
   46MY     H7S 1795   3.800   4.227   6.904
   46MY     C16 1796   3.896   4.411   6.934
   46MY     H6R 1797   3.991   4.362   6.916
   46MY     H6S 1798   3.896   4.514   6.896
   46MY     C15 1799   3.863   4.427   7.084
   46MY     H5R 1800   3.766   4.477   7.091
   46MY     H5S 1801   3.845   4.333   7.136
   46MY     C14 1802   3.958   4.517   7.160
   46MY     H4R 1803   3.954   4.622   7.129
   46MY     H4S 1804   3.914   4.514   7.260
   46MY     C13 1805   4.104   4.485   7.178
   46MY     H3R 1806   4.111   4.376   7.181
   46MY     H3S 1807   4.156   4.510   7.086
   46MY     C12 1808   4.162   4.564   7.292
   46MY     H2R 1809   4.171   4.669   7.262
   46MY     H2S 1810   4.080   4.564   7.365
   47PC     C11 1811   4.290   4.509   7.357
   47PC     O12 1812   4.296   4.475   7.476
   47PC     O11 1813   4.398   4.507   7.279
   47PC      C1 1814   4.530   4.477   7.330
   47PC      HR 1815   4.606   4.509   7.257
   47PC      HS 1816   4.546   4.529   7.424
   47PC      C2 1817   4.545   4.324   7.351
   47PC      HX 1818   4.474   4.284   7.423
   47PC      C3 1819   4.690   4.295   7.384
   47PC      HA 1820   4.707   4.191   7.412
   47PC      HB 1821   4.756   4.306   7.297
   47PC     O31 1822   4.745   4.385   7.488
   47PC     P31 1823   4.769   4.332   7.633
   47PC     O32 1824   4.626   4.263   7.666
   47PC     C31 1825   4.525   4.335   7.743
   47PC     H1A 1826   4.553   4.354   7.847
   47PC     H1B 1827   4.501   4.427   7.690
   47PC     C32 1828   4.404   4.241   7.736
   47PC     H2A 1829   4.327   4.300   7.784
   47PC     H2B 1830   4.366   4.206   7.640
   47PC     N31 1831   4.410   4.111   7.822
   47PC     C33 1832   4.481   4.006   7.748
   47PC     H3A 1833   4.487   3.912   7.803
   47PC     H3B 1834   4.579   4.047   7.724
   47PC     H3C 1835   4.433   3.997   7.651
   47PC     C34 1836   4.267   4.062   7.837
   47PC     H4A 1837   4.199   4.138   7.875
   47PC     H4B 1838   4.256   3.978   7.906
   47PC     H4C 1839   4.232   4.046   7.735
   47PC     C35 1840   4.480   4.131   7.954
   47PC     H5A 1841   4.436   4.214   8.009
   47PC     H5B 1842   4.579   4.155   7.917
   47PC     H5C 1843   4.465   4.034   8.003
   47PC     O33 1844   4.860   4.214   7.632
   47PC     O34 1845   4.789   4.440   7.734
   47PC     O21 1846   4.531   4.266   7.224
   47PC     C21 1847   4.412   4.213   7.203
   47PC     O22 1848   4.323   4.210   7.280
   48MY    H14T 1849   4.055   4.916   6.348
   48MY    C114 1850   3.985   4.836   6.324
   48MY    H14R 1851   3.988   4.757   6.399
   48MY    H14S 1852   3.880   4.865   6.322
   48MY    C113 1853   4.034   4.779   6.192
   48MY    H13R 1854   3.999   4.675   6.192
   48MY    H13S 1855   4.000   4.823   6.098
   48MY    C112 1856   4.187   4.774   6.181
   48MY    H12R 1857   4.203   4.751   6.075
   48MY    H12S 1858   4.242   4.868   6.191
   48MY    C111 1859   4.264   4.668   6.275
   48MY    H11R 1860   4.247   4.694   6.380
   48MY    H11S 1861   4.235   4.564   6.262
   48MY    C110 1862   4.421   4.678   6.274
   48MY    H10R 1863   4.445   4.717   6.175
   48MY    H10S 1864   4.458   4.754   6.342
   48MY     C19 1865   4.487   4.541   6.313
   48MY     H9R 1866   4.450   4.469   6.240
   48MY     H9S 1867   4.595   4.549   6.303
   48MY     C18 1868   4.444   4.491   6.456
   48MY     H8R 1869   4.493   4.556   6.528
   48MY     H8S 1870   4.335   4.483   6.457
   48MY     C17 1871   4.503   4.356   6.482
   48MY     H7R 1872   4.455   4.290   6.410
   48MY     H7S 1873   4.611   4.363   6.467
   48MY     C16 1874   4.492   4.314   6.631
   48MY     H6R 1875   4.540   4.217   6.646
   48MY     H6S 1876   4.561   4.371   6.693
   48MY     C15 1877   4.349   4.307   6.696
   48MY     H5R 1878   4.308   4.404   6.724
   48MY     H5S 1879   4.274   4.274   6.624
   48MY     C14 1880   4.352   4.205   6.805
   48MY     H4R 1881   4.255   4.163   6.833
   48MY     H4S 1882   4.407   4.114   6.777
   48MY     C13 1883   4.408   4.258   6.944
   48MY     H3R 1884   4.514   4.281   6.928
   48MY     H3S 1885   4.354   4.346   6.978
   48MY     C12 1886   4.393   4.158   7.061
   48MY     H2R 1887   4.292   4.118   7.057
   48MY     H2S 1888   4.464   4.075   7.049
   49MY    H14T 1889   5.977   1.801   6.279
   49MY    C114 1890   5.895   1.762   6.219
   49MY    H14R 1891   5.832   1.845   6.185
   49MY    H14S 1892   5.954   1.721   6.138
   49MY    C113 1893   5.810   1.651   6.285
   49MY    H13R 1894   5.727   1.618   6.223
   49MY    H13S 1895   5.873   1.562   6.294
   49MY    C112 1896   5.756   1.700   6.424
   49MY    H12R 1897   5.720   1.618   6.485
   49MY    H12S 1898   5.843   1.737   6.479
   49MY    C111 1899   5.650   1.811   6.429
   49MY    H11R 1900   5.634   1.854   6.529
   49MY    H11S 1901   5.678   1.897   6.368
   49MY    C110 1902   5.511   1.770   6.365
   49MY    H10R 1903   5.443   1.853   6.388
   49MY    H10S 1904   5.528   1.745   6.260
   49MY     C19 1905   5.444   1.652   6.439
   49MY     H9R 1906   5.491   1.560   6.403
   49MY     H9S 1907   5.462   1.650   6.547
   49MY     C18 1908   5.291   1.635   6.412
   49MY     H8R 1909   5.238   1.722   6.449
   49MY     H8S 1910   5.279   1.621   6.304
   49MY     C17 1911   5.221   1.514   6.476
   49MY     H7R 1912   5.118   1.520   6.442
   49MY     H7S 1913   5.252   1.417   6.437
   49MY     C16 1914   5.215   1.509   6.630
   49MY     H6R 1915   5.317   1.502   6.668
   49MY     H6S 1916   5.174   1.602   6.670
   49MY     C15 1917   5.130   1.396   6.677
   49MY     H5R 1918   5.027   1.427   6.658
   49MY     H5S 1919   5.148   1.297   6.635
   49MY     C14 1920   5.153   1.384   6.830
   49MY     H4R 1921   5.159   1.486   6.867
   49MY     H4S 1922   5.070   1.336   6.883
   49MY     C13 1923   5.280   1.304   6.868
   49MY     H3R 1924   5.272   1.204   6.825
   49MY     H3S 1925   5.365   1.360   6.828
   49MY     C12 1926   5.302   1.300   7.023
   49MY     H2R 1927   5.400   1.257   7.042
   49MY     H2S 1928   5.311   1.404   7.054
   50PC     C11 1929   5.184   1.238   7.100
   50PC     O12 1930   5.164   1.122   7.118
   50PC     O11 1931   5.106   1.342   7.138
   50PC      C1 1932   4.997   1.305   7.229
   50PC      HR 1933   4.938   1.238   7.167
   50PC      HS 1934   5.035   1.262   7.323
   50PC      C2 1935   4.901   1.421   7.261
   50PC      HX 1936   4.971   1.500   7.290
   50PC      C3 1937   4.803   1.375   7.372
   50PC      HA 1938   4.705   1.378   7.324
   50PC      HB 1939   4.836   1.277   7.407
   50PC     O31 1940   4.803   1.470   7.483
   50PC     P31 1941   4.885   1.454   7.617
   50PC     O32 1942   5.029   1.493   7.569
   50PC     C31 1943   5.080   1.626   7.594
   50PC     H1A 1944   5.042   1.654   7.693
   50PC     H1B 1945   5.188   1.620   7.602
   50PC     C32 1946   5.033   1.722   7.493
   50PC     H2A 1947   5.049   1.695   7.389
   50PC     H2B 1948   4.924   1.731   7.498
   50PC     N31 1949   5.079   1.867   7.495
   50PC     C33 1950   5.231   1.868   7.480
   50PC     H3A 1951   5.251   1.832   7.580
   50PC     H3B 1952   5.281   1.965   7.474
   50PC     H3C 1953   5.254   1.796   7.401
   50PC     C34 1954   5.044   1.946   7.618
   50PC     H4A 1955   4.936   1.954   7.632
   50PC     H4B 1956   5.090   2.045   7.606
   50PC     H4C 1957   5.092   1.894   7.701
   50PC     C35 1958   5.017   1.935   7.385
   50PC     H5A 1959   5.064   2.033   7.388
   50PC     H5B 1960   4.911   1.955   7.404
   50PC     H5C 1961   5.033   1.885   7.290
   50PC     O33 1962   4.829   1.550   7.715
   50PC     O34 1963   4.890   1.308   7.644
   50PC     O21 1964   4.830   1.466   7.142
   50PC     C21 1965   4.826   1.595   7.112
   50PC     O22 1966   4.854   1.692   7.183
   51MY    H14T 1967   4.975   2.135   5.785
   51MY    C114 1968   5.084   2.133   5.779
   51MY    H14R 1969   5.112   2.054   5.709
   51MY    H14S 1970   5.110   2.228   5.730
   51MY    C113 1971   5.149   2.116   5.915
   51MY    H13R 1972   5.257   2.134   5.915
   51MY    H13S 1973   5.117   2.200   5.978
   51MY    C112 1974   5.115   1.983   5.984
   51MY    H12R 1975   5.007   1.970   5.986
   51MY    H12S 1976   5.158   1.903   5.923
   51MY    C111 1977   5.170   1.970   6.127
   51MY    H11R 1978   5.149   1.875   6.177
   51MY    H11S 1979   5.279   1.976   6.114
   51MY    C110 1980   5.118   2.087   6.214
   51MY    H10R 1981   5.168   2.086   6.312
   51MY    H10S 1982   5.135   2.182   6.162
   51MY     C19 1983   4.966   2.086   6.241
   51MY     H9R 1984   4.931   2.166   6.308
   51MY     H9S 1985   4.926   2.103   6.141
   51MY     C18 1986   4.914   1.958   6.299
   51MY     H8R 1987   4.808   1.971   6.318
   51MY     H8S 1988   4.923   1.883   6.220
   51MY     C17 1989   4.983   1.932   6.434
   51MY     H7R 1990   5.084   1.891   6.425
   51MY     H7S 1991   4.995   2.028   6.484
   51MY     C16 1992   4.893   1.837   6.518
   51MY     H6R 1993   4.795   1.882   6.534
   51MY     H6S 1994   4.878   1.742   6.467
   51MY     C15 1995   4.942   1.804   6.660
   51MY     H5R 1996   5.030   1.738   6.656
   51MY     H5S 1997   4.964   1.896   6.714
   51MY     C14 1998   4.831   1.732   6.738
   51MY     H4R 1999   4.737   1.789   6.739
   51MY     H4S 2000   4.816   1.633   6.694
   51MY     C13 2001   4.878   1.708   6.884
   51MY     H3R 2002   4.980   1.670   6.887
   51MY     H3S 2003   4.895   1.797   6.945
   51MY     C12 2004   4.782   1.614   6.967
   51MY     H2R 2005   4.677   1.642   6.958
   51MY     H2S 2006   4.786   1.515   6.922
   52MY    H14T 2007   2.658   5.162   6.022
   52MY    C114 2008   2.562   5.154   5.971
   52MY    H14R 2009   2.543   5.235   5.900
   52MY    H14S 2010   2.556   5.060   5.915
   52MY    C113 2011   2.451   5.153   6.073
   52MY    H13R 2012   2.358   5.119   6.027
   52MY    H13S 2013   2.475   5.080   6.151
   52MY    C112 2014   2.423   5.287   6.141
   52MY    H12R 2015   2.509   5.329   6.193
   52MY    H12S 2016   2.391   5.355   6.062
   52MY    C111 2017   2.297   5.256   6.230
   52MY    H11R 2018   2.216   5.216   6.169
   52MY    H11S 2019   2.327   5.173   6.295
   52MY    C110 2020   2.251   5.374   6.323
   52MY    H10R 2021   2.245   5.454   6.249
   52MY    H10S 2022   2.156   5.352   6.372
   52MY     C19 2023   2.356   5.422   6.428
   52MY     H9R 2024   2.454   5.437   6.382
   52MY     H9S 2025   2.335   5.522   6.466
   52MY     C18 2026   2.378   5.343   6.547
   52MY     H8R 2027   2.435   5.251   6.530
   52MY     H8S 2028   2.443   5.398   6.615
   52MY     C17 2029   2.251   5.313   6.630
   52MY     H7R 2030   2.176   5.263   6.568
   52MY     H7S 2031   2.280   5.248   6.712
   52MY     C16 2032   2.171   5.431   6.689
   52MY     H6R 2033   2.161   5.510   6.614
   52MY     H6S 2034   2.068   5.407   6.716
   52MY     C15 2035   2.232   5.511   6.813
   52MY     H5R 2036   2.333   5.538   6.781
   52MY     H5S 2037   2.186   5.608   6.835
   52MY     C14 2038   2.256   5.426   6.938
   52MY     H4R 2039   2.165   5.366   6.947
   52MY     H4S 2040   2.341   5.359   6.924
   52MY     C13 2041   2.271   5.515   7.063
   52MY     H3R 2042   2.357   5.581   7.053
   52MY     H3S 2043   2.176   5.564   7.085
   52MY     C12 2044   2.299   5.433   7.191
   52MY     H2R 2045   2.216   5.367   7.218
   52MY     H2S 2046   2.384   5.368   7.172
   53PC     C11 2047   2.324   5.522   7.307
   53PC     O12 2048   2.315   5.641   7.301
   53PC     O11 2049   2.352   5.450   7.418
   53PC      C1 2050   2.393   5.514   7.538
   53PC      HR 2051   2.359   5.618   7.536
   53PC      HS 2052   2.336   5.473   7.621
   53PC      C2 2053   2.544   5.508   7.562
   53PC      HX 2054   2.577   5.406   7.543
   53PC      C3 2055   2.573   5.540   7.712
   53PC      HA 2056   2.536   5.461   7.777
   53PC      HB 2057   2.681   5.548   7.727
   53PC     O31 2058   2.503   5.666   7.745
   53PC     P31 2059   2.517   5.742   7.883
   53PC     O32 2060   2.642   5.838   7.865
   53PC     C31 2061   2.777   5.790   7.844
   53PC     H1A 2062   2.807   5.718   7.920
   53PC     H1B 2063   2.768   5.735   7.750
   53PC     C32 2064   2.872   5.911   7.844
   53PC     H2A 2065   2.860   5.966   7.938
   53PC     H2B 2066   2.970   5.865   7.852
   53PC     N31 2067   2.865   6.017   7.740
   53PC     C33 2068   2.976   6.104   7.768
   53PC     H3A 2069   2.964   6.144   7.869
   53PC     H3B 2070   2.977   6.187   7.697
   53PC     H3C 2071   3.069   6.049   7.756
   53PC     C34 2072   2.735   6.090   7.739
   53PC     H4A 2073   2.715   6.138   7.643
   53PC     H4B 2074   2.732   6.159   7.823
   53PC     H4C 2075   2.658   6.014   7.751
   53PC     C35 2076   2.873   5.945   7.612
   53PC     H5A 2077   2.772   5.905   7.602
   53PC     H5B 2078   2.953   5.873   7.627
   53PC     H5C 2079   2.901   6.013   7.532
   53PC     O33 2080   2.396   5.825   7.904
   53PC     O34 2081   2.555   5.646   7.987
   53PC     O21 2082   2.605   5.599   7.462
   53PC     C21 2083   2.738   5.605   7.445
   53PC     O22 2084   2.816   5.548   7.517
   54MY    H14T 2085   1.870   5.981   6.596
   54MY    C114 2086   1.885   6.025   6.497
   54MY    H14R 2087   1.868   5.964   6.408
   54MY    H14S 2088   1.821   6.112   6.482
   54MY    C113 2089   2.039   6.043   6.474
   54MY    H13R 2090   2.059   6.110   6.390
   54MY    H13S 2091   2.084   6.093   6.560
   54MY    C112 2092   2.117   5.910   6.456
   54MY    H12R 2093   2.092   5.836   6.532
   54MY    H12S 2094   2.081   5.867   6.362
   54MY    C111 2095   2.265   5.927   6.449
   54MY    H11R 2096   2.289   5.988   6.362
   54MY    H11S 2097   2.303   5.988   6.531
   54MY    C110 2098   2.356   5.803   6.459
   54MY    H10R 2099   2.314   5.739   6.536
   54MY    H10S 2100   2.350   5.745   6.366
   54MY     C19 2101   2.501   5.830   6.488
   54MY     H9R 2102   2.563   5.743   6.467
   54MY     H9S 2103   2.534   5.909   6.422
   54MY     C18 2104   2.543   5.877   6.628
   54MY     H8R 2105   2.641   5.926   6.628
   54MY     H8S 2106   2.467   5.952   6.653
   54MY     C17 2107   2.543   5.771   6.742
   54MY     H7R 2108   2.444   5.737   6.772
   54MY     H7S 2109   2.578   5.679   6.696
   54MY     C16 2110   2.627   5.807   6.870
   54MY     H6R 2111   2.723   5.847   6.837
   54MY     H6S 2112   2.592   5.894   6.926
   54MY     C15 2113   2.636   5.698   6.972
   54MY     H5R 2114   2.532   5.685   7.001
   54MY     H5S 2115   2.671   5.606   6.924
   54MY     C14 2116   2.718   5.731   7.090
   54MY     H4R 2117   2.821   5.745   7.059
   54MY     H4S 2118   2.686   5.826   7.134
   54MY     C13 2119   2.713   5.621   7.203
   54MY     H3R 2120   2.608   5.602   7.223
   54MY     H3S 2121   2.758   5.526   7.172
   54MY     C12 2122   2.778   5.686   7.328
   54MY     H2R 2123   2.886   5.694   7.317
   54MY     H2S 2124   2.742   5.787   7.352
   55MY    H14T 2125   5.911   0.701   6.302
   55MY    C114 2126   5.831   0.774   6.310
   55MY    H14R 2127   5.779   0.790   6.216
   55MY    H14S 2128   5.759   0.739   6.384
   55MY    C113 2129   5.895   0.900   6.368
   55MY    H13R 2130   5.964   0.878   6.450
   55MY    H13S 2131   5.956   0.949   6.292
   55MY    C112 2132   5.780   0.988   6.420
   55MY    H12R 2133   5.708   1.014   6.342
   55MY    H12S 2134   5.724   0.931   6.494
   55MY    C111 2135   5.835   1.113   6.484
   55MY    H11R 2136   5.918   1.077   6.545
   55MY    H11S 2137   5.876   1.181   6.409
   55MY    C110 2138   5.733   1.182   6.575
   55MY    H10R 2139   5.647   1.194   6.510
   55MY    H10S 2140   5.715   1.116   6.661
   55MY     C19 2141   5.778   1.322   6.623
   55MY     H9R 2142   5.870   1.314   6.683
   55MY     H9S 2143   5.793   1.388   6.537
   55MY     C18 2144   5.666   1.380   6.705
   55MY     H8R 2145   5.599   1.436   6.639
   55MY     H8S 2146   5.616   1.295   6.752
   55MY     C17 2147   5.726   1.487   6.791
   55MY     H7R 2148   5.791   1.438   6.863
   55MY     H7S 2149   5.782   1.553   6.724
   55MY     C16 2150   5.623   1.574   6.867
   55MY     H6R 2151   5.553   1.630   6.805
   55MY     H6S 2152   5.565   1.504   6.928
   55MY     C15 2153   5.698   1.664   6.972
   55MY     H5R 2154   5.745   1.597   7.043
   55MY     H5S 2155   5.774   1.726   6.924
   55MY     C14 2156   5.604   1.757   7.050
   55MY     H4R 2157   5.672   1.808   7.119
   55MY     H4S 2158   5.558   1.827   6.980
   55MY     C13 2159   5.490   1.693   7.127
   55MY     H3R 2160   5.440   1.773   7.182
   55MY     H3S 2161   5.419   1.664   7.049
   55MY     C12 2162   5.517   1.570   7.214
   55MY     H2R 2163   5.542   1.488   7.147
   55MY     H2S 2164   5.597   1.596   7.284
   56PC     C11 2165   5.405   1.535   7.304
   56PC     O12 2166   5.300   1.596   7.323
   56PC     O11 2167   5.440   1.430   7.376
   56PC      C1 2168   5.337   1.375   7.469
   56PC      HR 2169   5.316   1.433   7.560
   56PC      HS 2170   5.244   1.369   7.414
   56PC      C2 2171   5.387   1.242   7.533
   56PC      HX 2172   5.304   1.199   7.590
   56PC      C3 2173   5.512   1.257   7.625
   56PC      HA 2174   5.591   1.199   7.577
   56PC      HB 2175   5.558   1.356   7.621
   56PC     O31 2176   5.473   1.212   7.760
   56PC     P31 2177   5.415   1.312   7.869
   56PC     O32 2178   5.255   1.299   7.858
   56PC     C31 2179   5.181   1.190   7.916
   56PC     H1A 2180   5.099   1.157   7.851
   56PC     H1B 2181   5.256   1.113   7.938
   56PC     C32 2182   5.127   1.237   8.049
   56PC     H2A 2183   5.079   1.147   8.088
   56PC     H2B 2184   5.213   1.265   8.111
   56PC     N31 2185   5.028   1.349   8.054
   56PC     C33 2186   4.988   1.352   8.196
   56PC     H3A 2187   4.919   1.434   8.218
   56PC     H3B 2188   5.077   1.376   8.254
   56PC     H3C 2189   4.942   1.259   8.231
   56PC     C34 2190   4.917   1.334   7.953
   56PC     H4A 2191   4.846   1.416   7.961
   56PC     H4B 2192   4.858   1.245   7.977
   56PC     H4C 2193   4.970   1.339   7.858
   56PC     C35 2194   5.113   1.469   8.034
   56PC     H5A 2195   5.213   1.460   8.076
   56PC     H5B 2196   5.063   1.559   8.072
   56PC     H5C 2197   5.114   1.490   7.927
   56PC     O33 2198   5.455   1.260   8.001
   56PC     O34 2199   5.459   1.450   7.831
   56PC     O21 2200   5.406   1.148   7.430
   56PC     C21 2201   5.388   1.021   7.454
   56PC     O22 2202   5.388   0.974   7.565
   57MY    H14T 2203   5.244   0.175   6.158
   57MY    C114 2204   5.233   0.283   6.171
   57MY    H14R 2205   5.267   0.327   6.077
   57MY    H14S 2206   5.132   0.313   6.200
   57MY    C113 2207   5.326   0.334   6.280
   57MY    H13R 2208   5.424   0.296   6.252
   57MY    H13S 2209   5.342   0.442   6.275
   57MY    C112 2210   5.286   0.293   6.419
   57MY    H12R 2211   5.193   0.339   6.454
   57MY    H12S 2212   5.281   0.184   6.418
   57MY    C111 2213   5.397   0.341   6.512
   57MY    H11R 2214   5.493   0.297   6.487
   57MY    H11S 2215   5.416   0.448   6.496
   57MY    C110 2216   5.348   0.312   6.654
   57MY    H10R 2217   5.242   0.338   6.662
   57MY    H10S 2218   5.355   0.211   6.693
   57MY     C19 2219   5.422   0.398   6.762
   57MY     H9R 2220   5.518   0.348   6.765
   57MY     H9S 2221   5.432   0.504   6.737
   57MY     C18 2222   5.360   0.388   6.905
   57MY     H8R 2223   5.251   0.387   6.901
   57MY     H8S 2224   5.384   0.291   6.949
   57MY     C17 2225   5.407   0.497   6.997
   57MY     H7R 2226   5.515   0.490   6.980
   57MY     H7S 2227   5.376   0.597   6.968
   57MY     C16 2228   5.374   0.460   7.144
   57MY     H6R 2229   5.267   0.453   7.165
   57MY     H6S 2230   5.405   0.365   7.188
   57MY     C15 2231   5.438   0.567   7.240
   57MY     H5R 2232   5.400   0.539   7.338
   57MY     H5S 2233   5.545   0.554   7.226
   57MY     C14 2234   5.397   0.711   7.215
   57MY     H4R 2235   5.457   0.749   7.132
   57MY     H4S 2236   5.293   0.723   7.183
   57MY     C13 2237   5.419   0.790   7.343
   57MY     H3R 2238   5.357   0.744   7.421
   57MY     H3S 2239   5.525   0.781   7.366
   57MY     C12 2240   5.365   0.935   7.330
   57MY     H2R 2241   5.409   0.980   7.241
   57MY     H2S 2242   5.258   0.939   7.310
   58MY    H14T 2243   3.965   5.487   6.167
   58MY    C114 2244   3.924   5.407   6.105
   58MY    H14R 2245   3.945   5.433   6.001
   58MY    H14S 2246   3.973   5.317   6.143
   58MY    C113 2247   3.769   5.396   6.110
   58MY    H13R 2248   3.710   5.481   6.075
   58MY    H13S 2249   3.744   5.314   6.042
   58MY    C112 2250   3.718   5.363   6.255
   58MY    H12R 2251   3.704   5.457   6.308
   58MY    H12S 2252   3.624   5.310   6.238
   58MY    C111 2253   3.811   5.274   6.340
   58MY    H11R 2254   3.845   5.191   6.278
   58MY    H11S 2255   3.898   5.332   6.372
   58MY    C110 2256   3.740   5.219   6.463
   58MY    H10R 2257   3.710   5.307   6.520
   58MY    H10S 2258   3.651   5.164   6.431
   58MY     C19 2259   3.826   5.123   6.550
   58MY     H9R 2260   3.834   5.024   6.505
   58MY     H9S 2261   3.929   5.159   6.545
   58MY     C18 2262   3.780   5.118   6.694
   58MY     H8R 2263   3.747   5.213   6.735
   58MY     H8S 2264   3.682   5.070   6.688
   58MY     C17 2265   3.867   5.038   6.797
   58MY     H7R 2266   3.865   4.933   6.767
   58MY     H7S 2267   3.972   5.065   6.783
   58MY     C16 2268   3.813   5.038   6.937
   58MY     H6R 2269   3.781   5.137   6.968
   58MY     H6S 2270   3.712   5.001   6.921
   58MY     C15 2271   3.883   4.954   7.042
   58MY     H5R 2272   3.875   4.850   7.012
   58MY     H5S 2273   3.987   4.982   7.063
   58MY     C14 2274   3.814   4.972   7.181
   58MY     H4R 2275   3.807   5.078   7.209
   58MY     H4S 2276   3.711   4.942   7.161
   58MY     C13 2277   3.872   4.885   7.300
   58MY     H3R 2278   3.810   4.888   7.389
   58MY     H3S 2279   3.878   4.781   7.267
   58MY     C12 2280   4.012   4.922   7.347
   58MY     H2R 2281   4.082   4.920   7.264
   58MY     H2S 2282   4.012   5.029   7.371
   59PC     C11 2283   4.063   4.851   7.467
   59PC     O12 2284   3.989   4.810   7.552
   59PC     O11 2285   4.203   4.843   7.463
   59PC      C1 2286   4.280   4.784   7.574
   59PC      HR 2287   4.223   4.714   7.636
   59PC      HS 2288   4.352   4.727   7.514
   59PC      C2 2289   4.356   4.895   7.652
   59PC      HX 2290   4.430   4.857   7.723
   59PC      C3 2291   4.264   4.999   7.718
   59PC      HA 2292   4.324   5.084   7.752
   59PC      HB 2293   4.187   5.041   7.652
   59PC     O31 2294   4.198   4.946   7.839
   59PC     P31 2295   4.280   4.924   7.969
   59PC     O32 2296   4.234   5.043   8.060
   59PC     C31 2297   4.235   5.177   8.013
   59PC     H1A 2298   4.334   5.189   7.966
   59PC     H1B 2299   4.166   5.188   7.929
   59PC     C32 2300   4.218   5.272   8.129
   59PC     H2A 2301   4.227   5.370   8.082
   59PC     H2B 2302   4.117   5.271   8.170
   59PC     N31 2303   4.315   5.276   8.244
   59PC     C33 2304   4.458   5.259   8.209
   59PC     H3A 2305   4.499   5.356   8.181
   59PC     H3B 2306   4.474   5.200   8.118
   59PC     H3C 2307   4.530   5.224   8.283
   59PC     C34 2308   4.276   5.164   8.332
   59PC     H4A 2309   4.178   5.185   8.375
   59PC     H4B 2310   4.350   5.158   8.412
   59PC     H4C 2311   4.264   5.063   8.293
   59PC     C35 2312   4.297   5.399   8.312
   59PC     H5A 2313   4.203   5.389   8.365
   59PC     H5B 2314   4.304   5.477   8.236
   59PC     H5C 2315   4.383   5.421   8.375
   59PC     O33 2316   4.251   4.791   8.025
   59PC     O34 2317   4.423   4.949   7.940
   59PC     O21 2318   4.436   4.962   7.554
   59PC     C21 2319   4.561   4.915   7.513
   59PC     O22 2320   4.589   4.803   7.556
   60MY    H14T 2321   4.897   4.474   6.174
   60MY    C114 2322   4.862   4.576   6.189
   60MY    H14R 2323   4.837   4.604   6.087
   60MY    H14S 2324   4.778   4.564   6.258
   60MY    C113 2325   4.976   4.658   6.246
   60MY    H13R 2326   5.045   4.678   6.163
   60MY    H13S 2327   4.930   4.751   6.279
   60MY    C112 2328   5.051   4.599   6.366
   60MY    H12R 2329   5.124   4.527   6.328
   60MY    H12S 2330   5.105   4.687   6.402
   60MY    C111 2331   4.973   4.532   6.483
   60MY    H11R 2332   4.946   4.431   6.452
   60MY    H11S 2333   5.031   4.510   6.573
   60MY    C110 2334   4.864   4.625   6.546
   60MY    H10R 2335   4.899   4.727   6.560
   60MY    H10S 2336   4.783   4.642   6.475
   60MY     C19 2337   4.806   4.579   6.684
   60MY     H9R 2338   4.736   4.495   6.680
   60MY     H9S 2339   4.883   4.539   6.751
   60MY     C18 2340   4.747   4.691   6.767
   60MY     H8R 2341   4.816   4.768   6.803
   60MY     H8S 2342   4.685   4.750   6.700
   60MY     C17 2343   4.669   4.641   6.888
   60MY     H7R 2344   4.587   4.581   6.848
   60MY     H7S 2345   4.738   4.575   6.941
   60MY     C16 2346   4.621   4.754   6.983
   60MY     H6R 2347   4.574   4.827   6.918
   60MY     H6S 2348   4.555   4.706   7.056
   60MY     C15 2349   4.748   4.821   7.053
   60MY     H5R 2350   4.815   4.752   7.104
   60MY     H5S 2351   4.811   4.876   6.982
   60MY     C14 2352   4.696   4.931   7.145
   60MY     H4R 2353   4.782   4.988   7.182
   60MY     H4S 2354   4.629   5.003   7.098
   60MY     C13 2355   4.634   4.868   7.275
   60MY     H3R 2356   4.537   4.821   7.260
   60MY     H3S 2357   4.700   4.790   7.314
   60MY     C12 2358   4.626   4.971   7.395
   60MY     H2R 2359   4.724   5.011   7.422
   60MY     H2S 2360   4.573   5.059   7.357
   61MY    H14T 2361   0.543   5.505   5.992
   61MY    C114 2362   0.513   5.400   5.987
   61MY    H14R 2363   0.498   5.374   5.882
   61MY    H14S 2364   0.583   5.325   6.025
   61MY    C113 2365   0.375   5.394   6.066
   61MY    H13R 2366   0.321   5.482   6.030
   61MY    H13S 2367   0.313   5.306   6.047
   61MY    C112 2368   0.407   5.398   6.214
   61MY    H12R 2369   0.437   5.296   6.237
   61MY    H12S 2370   0.492   5.466   6.231
   61MY    C111 2371   0.297   5.437   6.314
   61MY    H11R 2372   0.318   5.544   6.328
   61MY    H11S 2373   0.201   5.431   6.264
   61MY    C110 2374   0.295   5.361   6.455
   61MY    H10R 2375   0.230   5.419   6.520
   61MY    H10S 2376   0.253   5.262   6.432
   61MY     C19 2377   0.431   5.352   6.522
   61MY     H9R 2378   0.504   5.301   6.459
   61MY     H9S 2379   0.477   5.450   6.540
   61MY     C18 2380   0.411   5.270   6.648
   61MY     H8R 2381   0.348   5.184   6.625
   61MY     H8S 2382   0.504   5.234   6.694
   61MY     C17 2383   0.331   5.334   6.766
   61MY     H7R 2384   0.384   5.425   6.793
   61MY     H7S 2385   0.234   5.367   6.727
   61MY     C16 2386   0.299   5.252   6.888
   61MY     H6R 2387   0.262   5.156   6.850
   61MY     H6S 2388   0.387   5.220   6.944
   61MY     C15 2389   0.189   5.308   6.975
   61MY     H5R 2390   0.230   5.399   7.018
   61MY     H5S 2391   0.099   5.325   6.915
   61MY     C14 2392   0.138   5.201   7.074
   61MY     H4R 2393   0.039   5.230   7.109
   61MY     H4S 2394   0.121   5.110   7.016
   61MY     C13 2395   0.223   5.176   7.198
   61MY     H3R 2396   0.181   5.092   7.255
   61MY     H3S 2397   0.320   5.138   7.166
   61MY     C12 2398   0.234   5.302   7.280
   61MY     H2R 2399   0.328   5.344   7.243
   61MY     H2S 2400   0.146   5.365   7.265
   62PC     C11 2401   0.259   5.268   7.425
   62PC     O12 2402   0.169   5.253   7.503
   62PC     O11 2403   0.382   5.222   7.452
   62PC      C1 2404   0.411   5.174   7.583
   62PC      HR 2405   0.520   5.178   7.586
   62PC      HS 2406   0.388   5.244   7.665
   62PC      C2 2407   0.365   5.032   7.604
   62PC      HX 2408   0.256   5.029   7.604
   62PC      C3 2409   0.408   4.975   7.738
   62PC      HA 2410   0.351   4.886   7.768
   62PC      HB 2411   0.513   4.946   7.747
   62PC     O31 2412   0.376   5.072   7.844
   62PC     P31 2413   0.228   5.089   7.898
   62PC     O32 2414   0.226   5.027   8.045
   62PC     C31 2415   0.251   4.885   8.060
   62PC     H1A 2416   0.196   4.823   7.989
   62PC     H1B 2417   0.356   4.862   8.041
   62PC     C32 2418   0.212   4.839   8.202
   62PC     H2A 2419   0.242   4.734   8.212
   62PC     H2B 2420   0.264   4.889   8.283
   62PC     N31 2421   0.067   4.832   8.241
   62PC     C33 2422   0.068   4.746   8.364
   62PC     H3A 2423   0.106   4.647   8.335
   62PC     H3B 2424  -0.038   4.734   8.386
   62PC     H3C 2425   0.128   4.791   8.444
   62PC     C34 2426  -0.018   4.774   8.136
   62PC     H4A 2427   0.021   4.676   8.109
   62PC     H4B 2428  -0.017   4.829   8.042
   62PC     H4C 2429  -0.122   4.768   8.170
   62PC     C35 2430   0.015   4.965   8.287
   62PC     H5A 2431  -0.082   4.935   8.326
   62PC     H5B 2432   0.015   5.038   8.205
   62PC     H5C 2433   0.080   4.993   8.369
   62PC     O33 2434   0.206   5.231   7.909
   62PC     O34 2435   0.137   5.012   7.812
   62PC     O21 2436   0.423   4.951   7.497
   62PC     C21 2437   0.340   4.905   7.401
   62PC     O22 2438   0.216   4.908   7.414
   63MY    H14T 2439   0.428   4.552   5.979
   63MY    C114 2440   0.489   4.534   6.068
   63MY    H14R 2441   0.579   4.481   6.036
   63MY    H14S 2442   0.515   4.628   6.118
   63MY    C113 2443   0.411   4.454   6.170
   63MY    H13R 2444   0.309   4.491   6.185
   63MY    H13S 2445   0.412   4.352   6.131
   63MY    C112 2446   0.495   4.442   6.303
   63MY    H12R 2447   0.591   4.396   6.280
   63MY    H12S 2448   0.511   4.548   6.327
   63MY    C111 2449   0.409   4.382   6.420
   63MY    H11R 2450   0.309   4.424   6.413
   63MY    H11S 2451   0.406   4.273   6.421
   63MY    C110 2452   0.472   4.421   6.550
   63MY    H10R 2453   0.572   4.378   6.561
   63MY    H10S 2454   0.490   4.528   6.532
   63MY     C19 2455   0.378   4.405   6.673
   63MY     H9R 2456   0.283   4.456   6.659
   63MY     H9S 2457   0.341   4.303   6.690
   63MY     C18 2458   0.438   4.451   6.803
   63MY     H8R 2459   0.370   4.428   6.885
   63MY     H8S 2460   0.530   4.395   6.822
   63MY     C17 2461   0.470   4.608   6.806
   63MY     H7R 2462   0.540   4.632   6.886
   63MY     H7S 2463   0.526   4.624   6.714
   63MY     C16 2464   0.343   4.695   6.808
   63MY     H6R 2465   0.346   4.797   6.770
   63MY     H6S 2466   0.271   4.653   6.738
   63MY     C15 2467   0.285   4.712   6.955
   63MY     H5R 2468   0.199   4.778   6.963
   63MY     H5S 2469   0.254   4.613   6.989
   63MY     C14 2470   0.389   4.760   7.059
   63MY     H4R 2471   0.462   4.682   7.082
   63MY     H4S 2472   0.440   4.850   7.023
   63MY     C13 2473   0.309   4.798   7.181
   63MY     H3R 2474   0.223   4.864   7.165
   63MY     H3S 2475   0.265   4.706   7.218
   63MY     C12 2476   0.410   4.850   7.278
   63MY     H2R 2477   0.472   4.766   7.311
   63MY     H2S 2478   0.475   4.927   7.237
   64MY    H14T 2479   2.030   2.832   6.329
   64MY    C114 2480   2.037   2.784   6.427
   64MY    H14R 2481   2.005   2.680   6.414
   64MY    H14S 2482   2.138   2.778   6.470
   64MY    C113 2483   1.944   2.856   6.525
   64MY    H13R 2484   1.977   2.959   6.517
   64MY    H13S 2485   1.841   2.842   6.488
   64MY    C112 2486   1.938   2.796   6.664
   64MY    H12R 2487   1.918   2.689   6.655
   64MY    H12S 2488   2.030   2.807   6.720
   64MY    C111 2489   1.822   2.859   6.751
   64MY    H11R 2490   1.732   2.869   6.691
   64MY    H11S 2491   1.794   2.781   6.822
   64MY    C110 2492   1.841   2.988   6.831
   64MY    H10R 2493   1.846   3.074   6.765
   64MY    H10S 2494   1.756   2.982   6.899
   64MY     C19 2495   1.961   3.000   6.923
   64MY     H9R 2496   1.945   2.926   7.002
   64MY     H9S 2497   2.044   2.977   6.855
   64MY     C18 2498   1.982   3.142   6.984
   64MY     H8R 2499   1.992   3.210   6.900
   64MY     H8S 2500   1.891   3.169   7.039
   64MY     C17 2501   2.114   3.155   7.068
   64MY     H7R 2502   2.126   3.068   7.133
   64MY     H7S 2503   2.196   3.147   6.996
   64MY     C16 2504   2.129   3.279   7.149
   64MY     H6R 2505   2.140   3.367   7.085
   64MY     H6S 2506   2.033   3.289   7.201
   64MY     C15 2507   2.241   3.276   7.263
   64MY     H5R 2508   2.336   3.293   7.211
   64MY     H5S 2509   2.232   3.367   7.322
   64MY     C14 2510   2.235   3.155   7.362
   64MY     H4R 2511   2.138   3.155   7.413
   64MY     H4S 2512   2.251   3.071   7.294
   64MY     C13 2513   2.336   3.157   7.477
   64MY     H3R 2514   2.314   3.240   7.545
   64MY     H3S 2515   2.328   3.058   7.523
   64MY     C12 2516   2.472   3.184   7.427
   64MY     H2R 2517   2.480   3.116   7.342
   64MY     H2S 2518   2.490   3.289   7.402
   65PC     C11 2519   2.574   3.139   7.527
   65PC     O12 2520   2.598   3.025   7.554
   65PC     O11 2521   2.629   3.240   7.589
   65PC      C1 2522   2.726   3.217   7.691
   65PC      HR 2523   2.690   3.158   7.775
   65PC      HS 2524   2.811   3.176   7.637
   65PC      C2 2525   2.772   3.353   7.746
   65PC      HX 2526   2.849   3.331   7.820
   65PC      C3 2527   2.654   3.440   7.806
   65PC      HA 2528   2.689   3.543   7.820
   65PC      HB 2529   2.568   3.434   7.739
   65PC     O31 2530   2.608   3.391   7.931
   65PC     P31 2531   2.702   3.376   8.058
   65PC     O32 2532   2.785   3.242   8.038
   65PC     C31 2533   2.733   3.117   8.081
   65PC     H1A 2534   2.720   3.115   8.190
   65PC     H1B 2535   2.637   3.100   8.030
   65PC     C32 2536   2.838   3.012   8.045
   65PC     H2A 2537   2.791   2.913   8.049
   65PC     H2B 2538   2.867   3.030   7.942
   65PC     N31 2539   2.955   2.999   8.137
   65PC     C33 2540   2.898   2.949   8.272
   65PC     H3A 2541   2.859   3.032   8.332
   65PC     H3B 2542   2.974   2.896   8.330
   65PC     H3C 2543   2.816   2.880   8.250
   65PC     C34 2544   3.043   3.124   8.160
   65PC     H4A 2545   2.972   3.202   8.188
   65PC     H4B 2546   3.087   3.148   8.063
   65PC     H4C 2547   3.115   3.099   8.238
   65PC     C35 2548   3.044   2.893   8.087
   65PC     H5A 2549   3.138   2.879   8.142
   65PC     H5B 2550   3.074   2.927   7.988
   65PC     H5C 2551   2.973   2.811   8.080
   65PC     O33 2552   2.791   3.491   8.068
   65PC     O34 2553   2.612   3.366   8.174
   65PC     O21 2554   2.829   3.429   7.638
   65PC     C21 2555   2.958   3.400   7.600
   65PC     O22 2556   3.013   3.296   7.632
   66MY    H14T 2557   3.585   3.192   6.435
   66MY    C114 2558   3.690   3.205   6.410
   66MY    H14R 2559   3.738   3.110   6.436
   66MY    H14S 2560   3.700   3.220   6.302
   66MY    C113 2561   3.766   3.302   6.497
   66MY    H13R 2562   3.860   3.253   6.522
   66MY    H13S 2563   3.794   3.390   6.439
   66MY    C112 2564   3.698   3.340   6.632
   66MY    H12R 2565   3.684   3.256   6.699
   66MY    H12S 2566   3.768   3.406   6.685
   66MY    C111 2567   3.553   3.396   6.621
   66MY    H11R 2568   3.546   3.470   6.541
   66MY    H11S 2569   3.477   3.322   6.595
   66MY    C110 2570   3.506   3.447   6.757
   66MY    H10R 2571   3.498   3.369   6.834
   66MY    H10S 2572   3.584   3.515   6.791
   66MY     C19 2573   3.380   3.532   6.752
   66MY     H9R 2574   3.396   3.604   6.671
   66MY     H9S 2575   3.292   3.474   6.727
   66MY     C18 2576   3.353   3.609   6.881
   66MY     H8R 2577   3.450   3.637   6.922
   66MY     H8S 2578   3.311   3.704   6.848
   66MY     C17 2579   3.273   3.539   6.989
   66MY     H7R 2580   3.182   3.508   6.938
   66MY     H7S 2581   3.314   3.441   7.017
   66MY     C16 2582   3.233   3.627   7.113
   66MY     H6R 2583   3.325   3.680   7.138
   66MY     H6S 2584   3.154   3.700   7.094
   66MY     C15 2585   3.201   3.548   7.245
   66MY     H5R 2586   3.132   3.464   7.227
   66MY     H5S 2587   3.287   3.493   7.283
   66MY     C14 2588   3.168   3.633   7.374
   66MY     H4R 2589   3.258   3.689   7.400
   66MY     H4S 2590   3.087   3.705   7.366
   66MY     C13 2591   3.145   3.546   7.493
   66MY     H3R 2592   3.202   3.454   7.478
   66MY     H3S 2593   3.162   3.589   7.592
   66MY     C12 2594   2.996   3.497   7.485
   66MY     H2R 2595   2.934   3.587   7.491
   66MY     H2S 2596   2.983   3.459   7.383
   67MY    H14T 2597   2.437   2.189   6.674
   67MY    C114 2598   2.507   2.269   6.650
   67MY    H14R 2599   2.587   2.216   6.597
   67MY    H14S 2600   2.467   2.345   6.583
   67MY    C113 2601   2.574   2.338   6.770
   67MY    H13R 2602   2.628   2.260   6.824
   67MY    H13S 2603   2.653   2.399   6.724
   67MY    C112 2604   2.490   2.430   6.863
   67MY    H12R 2605   2.560   2.464   6.939
   67MY    H12S 2606   2.458   2.521   6.812
   67MY    C111 2607   2.374   2.355   6.942
   67MY    H11R 2608   2.317   2.287   6.878
   67MY    H11S 2609   2.421   2.285   7.012
   67MY    C110 2610   2.296   2.443   7.037
   67MY    H10R 2611   2.233   2.504   6.972
   67MY    H10S 2612   2.226   2.386   7.098
   67MY     C19 2613   2.377   2.545   7.119
   67MY     H9R 2614   2.450   2.486   7.176
   67MY     H9S 2615   2.425   2.619   7.055
   67MY     C18 2616   2.294   2.633   7.223
   67MY     H8R 2617   2.219   2.682   7.160
   67MY     H8S 2618   2.253   2.573   7.305
   67MY     C17 2619   2.379   2.738   7.293
   67MY     H7R 2620   2.483   2.704   7.301
   67MY     H7S 2621   2.379   2.820   7.221
   67MY     C16 2622   2.328   2.802   7.420
   67MY     H6R 2623   2.409   2.843   7.480
   67MY     H6S 2624   2.259   2.878   7.385
   67MY     C15 2625   2.261   2.712   7.522
   67MY     H5R 2626   2.169   2.678   7.475
   67MY     H5S 2627   2.327   2.631   7.555
   67MY     C14 2628   2.234   2.786   7.657
   67MY     H4R 2629   2.318   2.820   7.719
   67MY     H4S 2630   2.162   2.867   7.644
   67MY     C13 2631   2.167   2.688   7.753
   67MY     H3R 2632   2.083   2.634   7.709
   67MY     H3S 2633   2.234   2.609   7.789
   67MY     C12 2634   2.115   2.775   7.872
   67MY     H2R 2635   2.190   2.805   7.947
   67MY     H2S 2636   2.053   2.858   7.836
   68PC     C11 2637   2.008   2.703   7.953
   68PC     O12 2638   1.955   2.599   7.923
   68PC     O11 2639   1.975   2.770   8.060
   68PC      C1 2640   1.919   2.700   8.172
   68PC      HR 2641   1.854   2.618   8.141
   68PC      HS 2642   2.006   2.657   8.222
   68PC      C2 2643   1.839   2.801   8.250
   68PC      HX 2644   1.897   2.892   8.269
   68PC      C3 2645   1.790   2.762   8.392
   68PC      HA 2646   1.884   2.745   8.445
   68PC      HB 2647   1.733   2.849   8.425
   68PC     O31 2648   1.700   2.654   8.403
   68PC     P31 2649   1.607   2.634   8.527
   68PC     O32 2650   1.499   2.751   8.515
   68PC     C31 2651   1.418   2.756   8.394
   68PC     H1A 2652   1.472   2.831   8.335
   68PC     H1B 2653   1.417   2.659   8.343
   68PC     C32 2654   1.267   2.795   8.434
   68PC     H2A 2655   1.280   2.881   8.500
   68PC     H2B 2656   1.219   2.834   8.344
   68PC     N31 2657   1.188   2.682   8.498
   68PC     C33 2658   1.165   2.571   8.398
   68PC     H3A 2659   1.265   2.542   8.363
   68PC     H3B 2660   1.103   2.608   8.316
   68PC     H3C 2661   1.115   2.485   8.443
   68PC     C34 2662   1.057   2.738   8.538
   68PC     H4A 2663   1.080   2.817   8.610
   68PC     H4B 2664   0.989   2.662   8.576
   68PC     H4C 2665   1.020   2.778   8.443
   68PC     C35 2666   1.256   2.628   8.624
   68PC     H5A 2667   1.343   2.566   8.607
   68PC     H5B 2668   1.190   2.563   8.682
   68PC     H5C 2669   1.278   2.712   8.691
   68PC     O33 2670   1.540   2.508   8.519
   68PC     O34 2671   1.687   2.660   8.652
   68PC     O21 2672   1.723   2.827   8.166
   68PC     C21 2673   1.709   2.940   8.102
   68PC     O22 2674   1.792   3.028   8.109
   69MY    H14T 2675   1.394   2.106   6.836
   69MY    C114 2676   1.424   2.165   6.923
   69MY    H14R 2677   1.461   2.256   6.875
   69MY    H14S 2678   1.339   2.191   6.985
   69MY    C113 2679   1.530   2.099   7.018
   69MY    H13R 2680   1.504   1.994   7.030
   69MY    H13S 2681   1.628   2.107   6.971
   69MY    C112 2682   1.518   2.167   7.153
   69MY    H12R 2683   1.535   2.274   7.141
   69MY    H12S 2684   1.422   2.149   7.201
   69MY    C111 2685   1.619   2.104   7.253
   69MY    H11R 2686   1.604   1.996   7.249
   69MY    H11S 2687   1.716   2.139   7.217
   69MY    C110 2688   1.591   2.153   7.394
   69MY    H10R 2689   1.506   2.097   7.434
   69MY    H10S 2690   1.684   2.137   7.448
   69MY     C19 2691   1.559   2.308   7.399
   69MY     H9R 2692   1.628   2.365   7.337
   69MY     H9S 2693   1.458   2.342   7.378
   69MY     C18 2694   1.584   2.356   7.540
   69MY     H8R 2695   1.514   2.308   7.609
   69MY     H8S 2696   1.682   2.325   7.578
   69MY     C17 2697   1.559   2.506   7.553
   69MY     H7R 2698   1.638   2.557   7.496
   69MY     H7S 2699   1.461   2.534   7.515
   69MY     C16 2700   1.578   2.554   7.701
   69MY     H6R 2701   1.495   2.516   7.761
   69MY     H6S 2702   1.673   2.514   7.738
   69MY     C15 2703   1.583   2.699   7.728
   69MY     H5R 2704   1.665   2.743   7.671
   69MY     H5S 2705   1.489   2.741   7.693
   69MY     C14 2706   1.606   2.735   7.875
   69MY     H4R 2707   1.536   2.686   7.942
   69MY     H4S 2708   1.708   2.704   7.901
   69MY     C13 2709   1.594   2.881   7.885
   69MY     H3R 2710   1.675   2.925   7.827
   69MY     H3S 2711   1.509   2.925   7.834
   69MY     C12 2712   1.580   2.944   8.022
   69MY     H2R 2713   1.554   3.050   8.012
   69MY     H2S 2714   1.511   2.878   8.075
   70MY    H14T 2715   2.841   3.456   6.550
   70MY    C114 2716   2.825   3.517   6.461
   70MY    H14R 2717   2.803   3.456   6.373
   70MY    H14S 2718   2.738   3.581   6.476
   70MY    C113 2719   2.956   3.599   6.430
   70MY    H13R 2720   3.032   3.521   6.424
   70MY    H13S 2721   2.942   3.649   6.334
   70MY    C112 2722   2.983   3.694   6.542
   70MY    H12R 2723   3.085   3.733   6.541
   70MY    H12S 2724   2.917   3.781   6.537
   70MY    C111 2725   2.964   3.635   6.685
   70MY    H11R 2726   2.857   3.617   6.697
   70MY    H11S 2727   3.016   3.539   6.694
   70MY    C110 2728   3.013   3.727   6.802
   70MY    H10R 2729   3.009   3.673   6.897
   70MY    H10S 2730   3.121   3.742   6.797
   70MY     C19 2731   2.957   3.869   6.808
   70MY     H9R 2732   3.002   3.933   6.884
   70MY     H9S 2733   2.969   3.916   6.710
   70MY     C18 2734   2.810   3.870   6.831
   70MY     H8R 2735   2.759   3.795   6.770
   70MY     H8S 2736   2.792   3.846   6.936
   70MY     C17 2737   2.744   4.008   6.811
   70MY     H7R 2738   2.759   4.036   6.707
   70MY     H7S 2739   2.636   4.002   6.827
   70MY     C16 2740   2.787   4.125   6.903
   70MY     H6R 2741   2.896   4.126   6.916
   70MY     H6S 2742   2.770   4.222   6.857
   70MY     C15 2743   2.730   4.133   7.042
   70MY     H5R 2744   2.621   4.126   7.048
   70MY     H5S 2745   2.761   4.051   7.107
   70MY     C14 2746   2.765   4.265   7.130
   70MY     H4R 2747   2.874   4.274   7.133
   70MY     H4S 2748   2.732   4.358   7.083
   70MY     C13 2749   2.716   4.251   7.280
   70MY     H3R 2750   2.607   4.250   7.275
   70MY     H3S 2751   2.749   4.156   7.324
   70MY     C12 2752   2.737   4.376   7.366
   70MY     H2R 2753   2.844   4.390   7.384
   70MY     H2S 2754   2.688   4.461   7.317
   71PC     C11 2755   2.690   4.371   7.509
   71PC     O12 2756   2.698   4.269   7.575
   71PC     O11 2757   2.665   4.496   7.553
   71PC      C1 2758   2.644   4.519   7.696
   71PC      HR 2759   2.709   4.460   7.761
   71PC      HS 2760   2.654   4.627   7.713
   71PC      C2 2761   2.489   4.493   7.735
   71PC      HX 2762   2.436   4.555   7.663
   71PC      C3 2763   2.455   4.549   7.869
   71PC      HA 2764   2.463   4.657   7.859
   71PC      HB 2765   2.351   4.526   7.894
   71PC     O31 2766   2.541   4.498   7.969
   71PC     P31 2767   2.484   4.439   8.104
   71PC     O32 2768   2.425   4.571   8.180
   71PC     C31 2769   2.285   4.621   8.156
   71PC     H1A 2770   2.265   4.649   8.053
   71PC     H1B 2771   2.218   4.538   8.180
   71PC     C32 2772   2.267   4.741   8.246
   71PC     H2A 2773   2.287   4.719   8.351
   71PC     H2B 2774   2.337   4.817   8.211
   71PC     N31 2775   2.134   4.808   8.245
   71PC     C33 2776   2.132   4.939   8.321
   71PC     H3A 2777   2.207   5.006   8.279
   71PC     H3B 2778   2.152   4.920   8.426
   71PC     H3C 2779   2.031   4.982   8.322
   71PC     C34 2780   2.025   4.724   8.304
   71PC     H4A 2781   2.048   4.622   8.275
   71PC     H4B 2782   1.934   4.754   8.251
   71PC     H4C 2783   2.011   4.721   8.412
   71PC     C35 2784   2.076   4.827   8.106
   71PC     H5A 2785   1.999   4.904   8.102
   71PC     H5B 2786   2.028   4.738   8.065
   71PC     H5C 2787   2.162   4.847   8.042
   71PC     O33 2788   2.366   4.354   8.074
   71PC     O34 2789   2.593   4.383   8.188
   71PC     O21 2790   2.457   4.353   7.733
   71PC     C21 2791   2.370   4.306   7.636
   71PC     O22 2792   2.353   4.367   7.534
   72MY    H14T 2793   2.610   3.259   6.824
   72MY    C114 2794   2.638   3.327   6.904
   72MY    H14R 2795   2.583   3.422   6.904
   72MY    H14S 2796   2.634   3.266   6.995
   72MY    C113 2797   2.783   3.365   6.884
   72MY    H13R 2798   2.845   3.278   6.862
   72MY    H13S 2799   2.797   3.429   6.796
   72MY    C112 2800   2.836   3.434   7.012
   72MY    H12R 2801   2.842   3.358   7.089
   72MY    H12S 2802   2.936   3.476   6.997
   72MY    C111 2803   2.736   3.545   7.055
   72MY    H11R 2804   2.716   3.610   6.970
   72MY    H11S 2805   2.642   3.514   7.101
   72MY    C110 2806   2.803   3.644   7.155
   72MY    H10R 2807   2.872   3.595   7.224
   72MY    H10S 2808   2.857   3.716   7.092
   72MY     C19 2809   2.688   3.715   7.247
   72MY     H9R 2810   2.638   3.788   7.183
   72MY     H9S 2811   2.613   3.640   7.272
   72MY     C18 2812   2.751   3.796   7.359
   72MY     H8R 2813   2.846   3.754   7.393
   72MY     H8S 2814   2.777   3.895   7.321
   72MY     C17 2815   2.641   3.815   7.474
   72MY     H7R 2816   2.625   3.716   7.517
   72MY     H7S 2817   2.676   3.867   7.563
   72MY     C16 2818   2.499   3.871   7.434
   72MY     H6R 2819   2.455   3.811   7.354
   72MY     H6S 2820   2.435   3.865   7.522
   72MY     C15 2821   2.491   4.024   7.401
   72MY     H5R 2822   2.557   4.080   7.467
   72MY     H5S 2823   2.539   4.038   7.303
   72MY     C14 2824   2.349   4.081   7.397
   72MY     H4R 2825   2.366   4.176   7.345
   72MY     H4S 2826   2.283   4.037   7.321
   72MY     C13 2827   2.269   4.090   7.530
   72MY     H3R 2828   2.168   4.125   7.507
   72MY     H3S 2829   2.241   3.994   7.574
   72MY     C12 2830   2.340   4.161   7.654
   72MY     H2R 2831   2.266   4.146   7.733
   72MY     H2S 2832   2.426   4.107   7.693
   73MY    H14T 2833   4.947   0.698   6.433
   73MY    C114 2834   4.973   0.778   6.364
   73MY    H14R 2835   5.076   0.773   6.328
   73MY    H14S 2836   4.920   0.770   6.269
   73MY    C113 2837   4.942   0.908   6.447
   73MY    H13R 2838   5.005   0.911   6.536
   73MY    H13S 2839   4.982   0.993   6.391
   73MY    C112 2840   4.795   0.921   6.475
   73MY    H12R 2841   4.759   1.019   6.509
   73MY    H12S 2842   4.746   0.912   6.378
   73MY    C111 2843   4.740   0.811   6.571
   73MY    H11R 2844   4.759   0.711   6.532
   73MY    H11S 2845   4.794   0.827   6.664
   73MY    C110 2846   4.584   0.823   6.597
   73MY    H10R 2847   4.558   0.919   6.643
   73MY    H10S 2848   4.531   0.822   6.501
   73MY     C19 2849   4.538   0.707   6.689
   73MY     H9R 2850   4.569   0.613   6.644
   73MY     H9S 2851   4.595   0.714   6.782
   73MY     C18 2852   4.389   0.716   6.710
   73MY     H8R 2853   4.375   0.821   6.736
   73MY     H8S 2854   4.335   0.684   6.621
   73MY     C17 2855   4.334   0.627   6.824
   73MY     H7R 2856   4.354   0.526   6.790
   73MY     H7S 2857   4.399   0.647   6.910
   73MY     C16 2858   4.189   0.641   6.860
   73MY     H6R 2859   4.156   0.744   6.875
   73MY     H6S 2860   4.131   0.595   6.780
   73MY     C15 2861   4.150   0.568   6.993
   73MY     H5R 2862   4.044   0.594   7.005
   73MY     H5S 2863   4.145   0.459   6.987
   73MY     C14 2864   4.229   0.596   7.117
   73MY     H4R 2865   4.331   0.560   7.101
   73MY     H4S 2866   4.231   0.704   7.128
   73MY     C13 2867   4.169   0.515   7.237
   73MY     H3R 2868   4.144   0.416   7.198
   73MY     H3S 2869   4.256   0.486   7.298
   73MY     C12 2870   4.046   0.584   7.291
   73MY     H2R 2871   4.076   0.688   7.306
   73MY     H2S 2872   3.982   0.574   7.203
   74PC     C11 2873   3.987   0.516   7.410
   74PC     O12 2874   4.049   0.452   7.493
   74PC     O11 2875   3.851   0.520   7.404
   74PC      C1 2876   3.780   0.483   7.528
   74PC      HR 2877   3.676   0.457   7.504
   74PC      HS 2878   3.818   0.389   7.567
   74PC      C2 2879   3.777   0.600   7.635
   74PC      HX 2880   3.870   0.634   7.682
   74PC      C3 2881   3.695   0.556   7.761
   74PC      HA 2882   3.683   0.642   7.827
   74PC      HB 2883   3.597   0.523   7.724
   74PC     O31 2884   3.755   0.457   7.846
   74PC     P31 2885   3.732   0.303   7.828
   74PC     O32 2886   3.880   0.249   7.781
   74PC     C31 2887   3.988   0.242   7.869
   74PC     H1A 2888   3.983   0.305   7.958
   74PC     H1B 2889   4.013   0.138   7.894
   74PC     C32 2890   4.112   0.288   7.780
   74PC     H2A 2891   4.093   0.383   7.729
   74PC     H2B 2892   4.201   0.289   7.844
   74PC     N31 2893   4.148   0.191   7.676
   74PC     C33 2894   4.039   0.161   7.578
   74PC     H3A 2895   4.074   0.096   7.498
   74PC     H3B 2896   4.010   0.251   7.524
   74PC     H3C 2897   3.957   0.116   7.635
   74PC     C34 2898   4.208   0.065   7.732
   74PC     H4A 2899   4.275   0.089   7.815
   74PC     H4B 2900   4.263   0.010   7.655
   74PC     H4C 2901   4.123   0.009   7.772
   74PC     C35 2902   4.262   0.253   7.600
   74PC     H5A 2903   4.217   0.346   7.566
   74PC     H5B 2904   4.290   0.189   7.515
   74PC     H5C 2905   4.351   0.265   7.663
   74PC     O33 2906   3.706   0.260   7.966
   74PC     O34 2907   3.633   0.278   7.721
   74PC     O21 2908   3.718   0.720   7.582
   74PC     C21 2909   3.746   0.849   7.620
   74PC     O22 2910   3.831   0.876   7.702
   75MY    H14T 2911   4.249   0.872   6.179
   75MY    C114 2912   4.221   0.815   6.268
   75MY    H14R 2913   4.168   0.727   6.231
   75MY    H14S 2914   4.301   0.771   6.328
   75MY    C113 2915   4.123   0.900   6.353
   75MY    H13R 2916   4.172   0.985   6.400
   75MY    H13S 2917   4.042   0.940   6.293
   75MY    C112 2918   4.061   0.819   6.466
   75MY    H12R 2919   4.005   0.738   6.418
   75MY    H12S 2920   4.132   0.779   6.538
   75MY    C111 2921   3.970   0.896   6.560
   75MY    H11R 2922   4.028   0.952   6.634
   75MY    H11S 2923   3.907   0.965   6.502
   75MY    C110 2924   3.882   0.803   6.641
   75MY    H10R 2925   3.798   0.758   6.587
   75MY    H10S 2926   3.941   0.725   6.690
   75MY     C19 2927   3.804   0.879   6.759
   75MY     H9R 2928   3.761   0.971   6.719
   75MY     H9S 2929   3.714   0.821   6.778
   75MY     C18 2930   3.887   0.915   6.880
   75MY     H8R 2931   3.926   0.818   6.912
   75MY     H8S 2932   3.962   0.984   6.842
   75MY     C17 2933   3.814   0.974   7.002
   75MY     H7R 2934   3.771   1.071   6.976
   75MY     H7S 2935   3.727   0.909   7.017
   75MY     C16 2936   3.912   0.976   7.127
   75MY     H6R 2937   3.949   0.875   7.147
   75MY     H6S 2938   4.005   1.018   7.087
   75MY     C15 2939   3.875   1.051   7.252
   75MY     H5R 2940   3.951   1.118   7.292
   75MY     H5S 2941   3.800   1.121   7.213
   75MY     C14 2942   3.820   0.952   7.355
   75MY     H4R 2943   3.750   0.885   7.304
   75MY     H4S 2944   3.900   0.906   7.413
   75MY     C13 2945   3.741   1.038   7.453
   75MY     H3R 2946   3.813   1.085   7.520
   75MY     H3S 2947   3.686   1.117   7.402
   75MY     C12 2948   3.657   0.951   7.549
   75MY     H2R 2949   3.625   1.017   7.630
   75MY     H2S 2950   3.569   0.907   7.502
   76MY    H14T 2951   0.880   5.044   6.466
   76MY    C114 2952   0.931   5.087   6.379
   76MY    H14R 2953   1.034   5.112   6.404
   76MY    H14S 2954   0.942   5.013   6.300
   76MY    C113 2955   0.852   5.193   6.312
   76MY    H13R 2956   0.872   5.182   6.205
   76MY    H13S 2957   0.746   5.175   6.327
   76MY    C112 2958   0.886   5.333   6.364
   76MY    H12R 2959   0.991   5.362   6.354
   76MY    H12S 2960   0.837   5.400   6.294
   76MY    C111 2961   0.826   5.358   6.502
   76MY    H11R 2962   0.738   5.294   6.501
   76MY    H11S 2963   0.892   5.329   6.583
   76MY    C110 2964   0.755   5.496   6.524
   76MY    H10R 2965   0.825   5.578   6.508
   76MY    H10S 2966   0.671   5.509   6.456
   76MY     C19 2967   0.706   5.518   6.666
   76MY     H9R 2968   0.626   5.446   6.680
   76MY     H9S 2969   0.784   5.500   6.740
   76MY     C18 2970   0.646   5.665   6.671
   76MY     H8R 2971   0.725   5.735   6.645
   76MY     H8S 2972   0.566   5.668   6.597
   76MY     C17 2973   0.572   5.693   6.800
   76MY     H7R 2974   0.538   5.796   6.787
   76MY     H7S 2975   0.476   5.642   6.796
   76MY     C16 2976   0.655   5.676   6.928
   76MY     H6R 2977   0.678   5.569   6.935
   76MY     H6S 2978   0.747   5.733   6.940
   76MY     C15 2979   0.569   5.704   7.049
   76MY     H5R 2980   0.540   5.809   7.049
   76MY     H5S 2981   0.476   5.648   7.057
   76MY     C14 2982   0.652   5.680   7.180
   76MY     H4R 2983   0.694   5.580   7.179
   76MY     H4S 2984   0.738   5.748   7.175
   76MY     C13 2985   0.588   5.706   7.311
   76MY     H3R 2986   0.652   5.700   7.399
   76MY     H3S 2987   0.539   5.803   7.314
   76MY     C12 2988   0.477   5.607   7.339
   76MY     H2R 2989   0.407   5.611   7.254
   76MY     H2S 2990   0.517   5.506   7.329
   77PC     C11 2991   0.403   5.627   7.468
   77PC     O12 2992   0.443   5.679   7.569
   77PC     O11 2993   0.283   5.564   7.458
   77PC      C1 2994   0.190   5.573   7.574
   77PC      HR 2995   0.107   5.507   7.550
   77PC      HS 2996   0.244   5.544   7.664
   77PC      C2 2997   0.131   5.712   7.592
   77PC      HX 2998   0.207   5.781   7.628
   77PC      C3 2999   0.023   5.710   7.707
   77PC      HA 3000   0.008   5.816   7.733
   77PC      HB 3001  -0.068   5.654   7.682
   77PC     O31 3002   0.076   5.642   7.818
   77PC     P31 3003   0.165   5.705   7.930
   77PC     O32 3004   0.316   5.684   7.882
   77PC     C31 3005   0.386   5.558   7.901
   77PC     H1A 3006   0.308   5.481   7.895
   77PC     H1B 3007   0.455   5.544   7.817
   77PC     C32 3008   0.453   5.542   8.036
   77PC     H2A 3009   0.507   5.636   8.049
   77PC     H2B 3010   0.375   5.531   8.112
   77PC     N31 3011   0.551   5.424   8.060
   77PC     C33 3012   0.478   5.294   8.067
   77PC     H3A 3013   0.410   5.295   7.982
   77PC     H3B 3014   0.419   5.283   8.158
   77PC     H3C 3015   0.548   5.211   8.063
   77PC     C34 3016   0.619   5.444   8.187
   77PC     H4A 3017   0.672   5.539   8.198
   77PC     H4B 3018   0.701   5.373   8.205
   77PC     H4C 3019   0.546   5.423   8.265
   77PC     C35 3020   0.658   5.411   7.950
   77PC     H5A 3021   0.711   5.505   7.932
   77PC     H5B 3022   0.612   5.373   7.858
   77PC     H5C 3023   0.728   5.331   7.975
   77PC     O33 3024   0.149   5.851   7.925
   77PC     O34 3025   0.154   5.628   8.057
   77PC     O21 3026   0.073   5.750   7.467
   77PC     C21 3027   0.134   5.838   7.383
   77PC     O22 3028   0.230   5.913   7.410
   78MY    H14T 3029  -0.103   6.346   6.113
   78MY    C114 3030   0.002   6.324   6.133
   78MY    H14R 3031   0.066   6.361   6.053
   78MY    H14S 3032   0.031   6.367   6.229
   78MY    C113 3033   0.010   6.174   6.146
   78MY    H13R 3034  -0.043   6.134   6.060
   78MY    H13S 3035   0.116   6.148   6.135
   78MY    C112 3036  -0.046   6.106   6.269
   78MY    H12R 3037   0.003   6.142   6.360
   78MY    H12S 3038  -0.147   6.146   6.263
   78MY    C111 3039  -0.072   5.956   6.257
   78MY    H11R 3040  -0.157   5.925   6.318
   78MY    H11S 3041  -0.093   5.931   6.152
   78MY    C110 3042   0.040   5.861   6.302
   78MY    H10R 3043  -0.011   5.767   6.277
   78MY    H10S 3044   0.133   5.865   6.246
   78MY     C19 3045   0.092   5.879   6.447
   78MY     H9R 3046   0.157   5.967   6.450
   78MY     H9S 3047   0.015   5.895   6.522
   78MY     C18 3048   0.180   5.764   6.495
   78MY     H8R 3049   0.104   5.686   6.506
   78MY     H8S 3050   0.245   5.727   6.416
   78MY     C17 3051   0.254   5.786   6.628
   78MY     H7R 3052   0.295   5.692   6.664
   78MY     H7S 3053   0.336   5.858   6.622
   78MY     C16 3054   0.163   5.834   6.746
   78MY     H6R 3055   0.147   5.941   6.754
   78MY     H6S 3056   0.067   5.783   6.730
   78MY     C15 3057   0.208   5.787   6.892
   78MY     H5R 3058   0.232   5.680   6.888
   78MY     H5S 3059   0.299   5.844   6.911
   78MY     C14 3060   0.118   5.832   7.006
   78MY     H4R 3061   0.087   5.936   6.989
   78MY     H4S 3062   0.022   5.781   7.005
   78MY     C13 3063   0.180   5.828   7.147
   78MY     H3R 3064   0.217   5.727   7.162
   78MY     H3S 3065   0.255   5.907   7.152
   78MY     C12 3066   0.073   5.844   7.249
   78MY     H2R 3067   0.032   5.945   7.241
   78MY     H2S 3068  -0.015   5.780   7.239
   79MY    H14T 3069   5.061   4.124   6.069
   79MY    C114 3070   5.127   4.209   6.078
   79MY    H14R 3071   5.151   4.245   5.977
   79MY    H14S 3072   5.064   4.290   6.115
   79MY    C113 3073   5.250   4.182   6.168
   79MY    H13R 3074   5.291   4.081   6.156
   79MY    H13S 3075   5.319   4.261   6.138
   79MY    C112 3076   5.232   4.225   6.319
   79MY    H12R 3077   5.244   4.333   6.326
   79MY    H12S 3078   5.129   4.199   6.343
   79MY    C111 3079   5.323   4.145   6.409
   79MY    H11R 3080   5.309   4.039   6.387
   79MY    H11S 3081   5.426   4.168   6.382
   79MY    C110 3082   5.297   4.176   6.555
   79MY    H10R 3083   5.317   4.281   6.579
   79MY    H10S 3084   5.195   4.145   6.582
   79MY     C19 3085   5.405   4.092   6.628
   79MY     H9R 3086   5.399   3.986   6.602
   79MY     H9S 3087   5.498   4.138   6.596
   79MY     C18 3088   5.385   4.105   6.786
   79MY     H8R 3089   5.388   4.213   6.798
   79MY     H8S 3090   5.285   4.071   6.813
   79MY     C17 3091   5.484   4.037   6.880
   79MY     H7R 3092   5.461   3.931   6.868
   79MY     H7S 3093   5.578   4.061   6.831
   79MY     C16 3094   5.488   4.086   7.030
   79MY     H6R 3095   5.580   4.058   7.083
   79MY     H6S 3096   5.495   4.195   7.030
   79MY     C15 3097   5.359   4.047   7.106
   79MY     H5R 3098   5.277   4.063   7.036
   79MY     H5S 3099   5.362   3.942   7.136
   79MY     C14 3100   5.337   4.120   7.237
   79MY     H4R 3101   5.323   4.225   7.207
   79MY     H4S 3102   5.244   4.088   7.284
   79MY     C13 3103   5.448   4.109   7.344
   79MY     H3R 3104   5.534   4.166   7.308
   79MY     H3S 3105   5.419   4.167   7.432
   79MY     C12 3106   5.496   3.968   7.389
   79MY     H2R 3107   5.470   3.884   7.325
   79MY     H2S 3108   5.605   3.954   7.387
   80PC     C11 3109   5.449   3.933   7.529
   80PC     O12 3110   5.465   4.001   7.631
   80PC     O11 3111   5.389   3.811   7.536
   80PC      C1 3112   5.332   3.773   7.662
   80PC      HR 3113   5.360   3.667   7.668
   80PC      HS 3114   5.378   3.818   7.751
   80PC      C2 3115   5.173   3.771   7.672
   80PC      HX 3116   5.132   3.872   7.669
   80PC      C3 3117   5.136   3.697   7.801
   80PC      HA 3118   5.030   3.676   7.814
   80PC      HB 3119   5.185   3.599   7.804
   80PC     O31 3120   5.186   3.772   7.916
   80PC     P31 3121   5.120   3.905   7.980
   80PC     O32 3122   5.156   4.018   7.879
   80PC     C31 3123   5.280   4.089   7.873
   80PC     H1A 3124   5.299   4.135   7.970
   80PC     H1B 3125   5.362   4.018   7.856
   80PC     C32 3126   5.272   4.190   7.758
   80PC     H2A 3127   5.368   4.206   7.709
   80PC     H2B 3128   5.209   4.142   7.683
   80PC     N31 3129   5.221   4.327   7.780
   80PC     C33 3130   5.091   4.321   7.851
   80PC     H3A 3131   5.088   4.265   7.944
   80PC     H3B 3132   5.020   4.271   7.785
   80PC     H3C 3133   5.052   4.422   7.866
   80PC     C34 3134   5.198   4.392   7.650
   80PC     H4A 3135   5.117   4.343   7.595
   80PC     H4B 3136   5.288   4.370   7.593
   80PC     H4C 3137   5.173   4.496   7.670
   80PC     C35 3138   5.305   4.403   7.873
   80PC     H5A 3139   5.392   4.443   7.820
   80PC     H5B 3140   5.348   4.345   7.954
   80PC     H5C 3141   5.241   4.483   7.912
   80PC     O33 3142   4.975   3.885   7.985
   80PC     O34 3143   5.191   3.932   8.103
   80PC     O21 3144   5.126   3.691   7.564
   80PC     C21 3145   5.076   3.756   7.460
   80PC     O22 3146   5.036   3.870   7.463
   81MY    H14T 3147   4.581   4.233   6.132
   81MY    C114 3148   4.669   4.202   6.075
   81MY    H14R 3149   4.671   4.122   6.001
   81MY    H14S 3150   4.715   4.288   6.027
   81MY    C113 3151   4.778   4.159   6.180
   81MY    H13R 3152   4.855   4.103   6.128
   81MY    H13S 3153   4.819   4.252   6.223
   81MY    C112 3154   4.738   4.078   6.299
   81MY    H12R 3155   4.657   4.139   6.340
   81MY    H12S 3156   4.686   3.985   6.273
   81MY    C111 3157   4.840   4.048   6.412
   81MY    H11R 3158   4.898   4.138   6.434
   81MY    H11S 3159   4.782   4.026   6.501
   81MY    C110 3160   4.926   3.925   6.382
   81MY    H10R 3161   4.857   3.847   6.351
   81MY    H10S 3162   4.975   3.942   6.286
   81MY     C19 3163   5.030   3.879   6.489
   81MY     H9R 3164   5.104   3.819   6.436
   81MY     H9S 3165   5.096   3.960   6.523
   81MY     C18 3166   4.988   3.787   6.606
   81MY     H8R 3167   4.931   3.847   6.677
   81MY     H8S 3168   4.918   3.716   6.564
   81MY     C17 3169   5.109   3.724   6.678
   81MY     H7R 3170   5.142   3.646   6.609
   81MY     H7S 3171   5.185   3.799   6.701
   81MY     C16 3172   5.054   3.663   6.813
   81MY     H6R 3173   4.945   3.662   6.803
   81MY     H6S 3174   5.091   3.561   6.816
   81MY     C15 3175   5.081   3.745   6.942
   81MY     H5R 3176   5.188   3.768   6.942
   81MY     H5S 3177   5.027   3.840   6.937
   81MY     C14 3178   5.054   3.671   7.080
   81MY     H4R 3179   4.945   3.665   7.067
   81MY     H4S 3180   5.113   3.579   7.082
   81MY     C13 3181   5.084   3.757   7.204
   81MY     H3R 3182   5.182   3.805   7.204
   81MY     H3S 3183   5.009   3.837   7.210
   81MY     C12 3184   5.063   3.671   7.334
   81MY     H2R 3185   4.962   3.630   7.325
   81MY     H2S 3186   5.140   3.594   7.327
   82MY    H14T 3187   0.498   5.091   6.282
   82MY    C114 3188   0.408   5.032   6.299
   82MY    H14R 3189   0.353   5.080   6.381
   82MY    H14S 3190   0.345   5.040   6.210
   82MY    C113 3191   0.453   4.887   6.318
   82MY    H13R 3192   0.363   4.838   6.353
   82MY    H13S 3193   0.473   4.849   6.217
   82MY    C112 3194   0.568   4.857   6.420
   82MY    H12R 3195   0.578   4.749   6.430
   82MY    H12S 3196   0.661   4.900   6.383
   82MY    C111 3197   0.538   4.921   6.556
   82MY    H11R 3198   0.524   5.029   6.545
   82MY    H11S 3199   0.447   4.873   6.592
   82MY    C110 3200   0.649   4.891   6.648
   82MY    H10R 3201   0.676   4.785   6.660
   82MY    H10S 3202   0.748   4.924   6.617
   82MY     C19 3203   0.620   4.954   6.787
   82MY     H9R 3204   0.639   5.060   6.768
   82MY     H9S 3205   0.514   4.943   6.811
   82MY     C18 3206   0.711   4.912   6.901
   82MY     H8R 3207   0.677   4.812   6.926
   82MY     H8S 3208   0.811   4.911   6.858
   82MY     C17 3209   0.698   5.014   7.022
   82MY     H7R 3210   0.595   5.018   7.059
   82MY     H7S 3211   0.759   4.978   7.106
   82MY     C16 3212   0.756   5.155   6.988
   82MY     H6R 3213   0.864   5.146   6.976
   82MY     H6S 3214   0.714   5.197   6.896
   82MY     C15 3215   0.723   5.263   7.096
   82MY     H5R 3216   0.756   5.365   7.073
   82MY     H5S 3217   0.614   5.264   7.093
   82MY     C14 3218   0.782   5.227   7.236
   82MY     H4R 3219   0.765   5.123   7.266
   82MY     H4S 3220   0.888   5.249   7.227
   82MY     C13 3221   0.730   5.327   7.343
   82MY     H3R 3222   0.767   5.424   7.310
   82MY     H3S 3223   0.621   5.337   7.351
   82MY     C12 3224   0.774   5.304   7.487
   82MY     H2R 3225   0.743   5.209   7.532
   82MY     H2S 3226   0.883   5.304   7.488
   83PC     C11 3227   0.727   5.420   7.575
   83PC     O12 3228   0.625   5.404   7.637
   83PC     O11 3229   0.802   5.532   7.563
   83PC      C1 3230   0.771   5.629   7.667
   83PC      HR 3231   0.674   5.678   7.654
   83PC      HS 3232   0.769   5.570   7.759
   83PC      C2 3233   0.877   5.745   7.663
   83PC      HX 3234   0.973   5.695   7.650
   83PC      C3 3235   0.883   5.835   7.792
   83PC      HA 3236   0.936   5.778   7.869
   83PC      HB 3237   0.940   5.925   7.767
   83PC     O31 3238   0.755   5.868   7.858
   83PC     P31 3239   0.732   5.825   8.011
   83PC     O32 3240   0.827   5.912   8.090
   83PC     C31 3241   0.806   6.051   8.103
   83PC     H1A 3242   0.872   6.105   8.034
   83PC     H1B 3243   0.702   6.080   8.086
   83PC     C32 3244   0.829   6.089   8.244
   83PC     H2A 3245   0.934   6.087   8.272
   83PC     H2B 3246   0.802   6.195   8.243
   83PC     N31 3247   0.749   6.034   8.363
   83PC     C33 3248   0.771   5.887   8.389
   83PC     H3A 3249   0.836   5.888   8.476
   83PC     H3B 3250   0.807   5.836   8.300
   83PC     H3C 3251   0.674   5.856   8.429
   83PC     C34 3252   0.609   6.065   8.344
   83PC     H4A 3253   0.595   6.167   8.309
   83PC     H4B 3254   0.549   6.052   8.433
   83PC     H4C 3255   0.571   6.018   8.253
   83PC     C35 3256   0.778   6.114   8.483
   83PC     H5A 3257   0.872   6.086   8.531
   83PC     H5B 3258   0.698   6.092   8.554
   83PC     H5C 3259   0.763   6.216   8.448
   83PC     O33 3260   0.594   5.863   8.039
   83PC     O34 3261   0.771   5.685   8.036
   83PC     O21 3262   0.842   5.838   7.552
   83PC     C21 3263   0.934   5.862   7.449
   83PC     O22 3264   1.045   5.811   7.441
   84MY    H14T 3265   0.677   5.691   6.257
   84MY    C114 3266   0.705   5.675   6.153
   84MY    H14R 3267   0.708   5.568   6.135
   84MY    H14S 3268   0.617   5.714   6.101
   84MY    C113 3269   0.830   5.758   6.118
   84MY    H13R 3270   0.855   5.758   6.011
   84MY    H13S 3271   0.808   5.865   6.128
   84MY    C112 3272   0.952   5.739   6.210
   84MY    H12R 3273   0.973   5.633   6.227
   84MY    H12S 3274   1.042   5.768   6.156
   84MY    C111 3275   0.940   5.800   6.354
   84MY    H11R 3276   0.927   5.908   6.359
   84MY    H11S 3277   0.853   5.751   6.398
   84MY    C110 3278   1.069   5.759   6.438
   84MY    H10R 3279   1.054   5.666   6.494
   84MY    H10S 3280   1.152   5.751   6.368
   84MY     C19 3281   1.104   5.872   6.538
   84MY     H9R 3282   1.208   5.864   6.569
   84MY     H9S 3283   1.092   5.970   6.490
   84MY     C18 3284   1.018   5.867   6.664
   84MY     H8R 3285   0.918   5.869   6.619
   84MY     H8S 3286   1.033   5.782   6.731
   84MY     C17 3287   1.037   5.994   6.757
   84MY     H7R 3288   1.143   6.004   6.783
   84MY     H7S 3289   1.012   6.082   6.698
   84MY     C16 3290   0.953   5.973   6.887
   84MY     H6R 3291   0.847   5.951   6.874
   84MY     H6S 3292   0.987   5.890   6.950
   84MY     C15 3293   0.964   6.089   6.985
   84MY     H5R 3294   1.070   6.108   7.001
   84MY     H5S 3295   0.906   6.172   6.942
   84MY     C14 3296   0.884   6.072   7.113
   84MY     H4R 3297   0.884   6.166   7.168
   84MY     H4S 3298   0.779   6.054   7.089
   84MY     C13 3299   0.945   5.954   7.199
   84MY     H3R 3300   0.925   5.865   7.140
   84MY     H3S 3301   1.052   5.976   7.202
   84MY     C12 3302   0.874   5.952   7.338
   84MY     H2R 3303   0.869   6.056   7.370
   84MY     H2S 3304   0.772   5.914   7.324
   85MY    H14T 3305   6.215   5.569   6.605
   85MY    C114 3306   6.139   5.536   6.677
   85MY    H14R 3307   6.176   5.512   6.777
   85MY    H14S 3308   6.067   5.618   6.684
   85MY    C113 3309   6.059   5.428   6.610
   85MY    H13R 3310   5.996   5.381   6.686
   85MY    H13S 3311   5.985   5.468   6.540
   85MY    C112 3312   6.142   5.314   6.536
   85MY    H12R 3313   6.079   5.257   6.468
   85MY    H12S 3314   6.224   5.356   6.478
   85MY    C111 3315   6.208   5.217   6.636
   85MY    H11R 3316   6.280   5.157   6.580
   85MY    H11S 3317   6.267   5.267   6.713
   85MY    C110 3318   6.096   5.129   6.709
   85MY    H10R 3319   6.030   5.200   6.759
   85MY    H10S 3320   6.042   5.071   6.634
   85MY     C19 3321   6.167   5.024   6.801
   85MY     H9R 3322   6.240   4.967   6.744
   85MY     H9S 3323   6.225   5.084   6.871
   85MY     C18 3324   6.068   4.937   6.878
   85MY     H8R 3325   5.976   4.992   6.899
   85MY     H8S 3326   6.032   4.860   6.810
   85MY     C17 3327   6.136   4.869   6.998
   85MY     H7R 3328   6.240   4.848   6.973
   85MY     H7S 3329   6.146   4.947   7.073
   85MY     C16 3330   6.072   4.742   7.044
   85MY     H6R 3331   5.972   4.770   7.078
   85MY     H6S 3332   6.055   4.666   6.967
   85MY     C15 3333   6.154   4.670   7.156
   85MY     H5R 3334   6.248   4.633   7.115
   85MY     H5S 3335   6.182   4.745   7.231
   85MY     C14 3336   6.073   4.561   7.233
   85MY     H4R 3337   6.005   4.617   7.299
   85MY     H4S 3338   6.008   4.512   7.160
   85MY     C13 3339   6.163   4.467   7.309
   85MY     H3R 3340   6.242   4.429   7.244
   85MY     H3S 3341   6.212   4.523   7.388
   85MY     C12 3342   6.090   4.337   7.357
   85MY     H2R 3343   5.988   4.358   7.389
   85MY     H2S 3344   6.079   4.263   7.278
   86PC     C11 3345   6.146   4.276   7.477
   86PC     O12 3346   6.239   4.191   7.485
   86PC     O11 3347   6.089   4.330   7.584
   86PC      C1 3348   6.125   4.262   7.708
   86PC      HR 3349   6.226   4.220   7.702
   86PC      HS 3350   6.131   4.340   7.784
   86PC      C2 3351   6.020   4.158   7.756
   86PC      HX 3352   5.920   4.195   7.781
   86PC      C3 3353   6.078   4.092   7.887
   86PC      HA 3354   6.017   4.004   7.910
   86PC      HB 3355   6.177   4.050   7.864
   86PC     O31 3356   6.091   4.179   8.003
   86PC     P31 3357   5.973   4.231   8.092
   86PC     O32 3358   5.909   4.348   8.013
   86PC     C31 3359   5.914   4.487   8.049
   86PC     H1A 3360   5.826   4.509   8.110
   86PC     H1B 3361   6.002   4.507   8.111
   86PC     C32 3362   5.925   4.581   7.925
   86PC     H2A 3363   5.936   4.684   7.961
   86PC     H2B 3364   6.011   4.557   7.862
   86PC     N31 3365   5.812   4.576   7.827
   86PC     C33 3366   5.672   4.578   7.890
   86PC     H3A 3367   5.599   4.544   7.817
   86PC     H3B 3368   5.649   4.677   7.928
   86PC     H3C 3369   5.672   4.506   7.972
   86PC     C34 3370   5.800   4.443   7.757
   86PC     H4A 3371   5.788   4.371   7.838
   86PC     H4B 3372   5.895   4.423   7.708
   86PC     H4C 3373   5.718   4.432   7.686
   86PC     C35 3374   5.820   4.688   7.732
   86PC     H5A 3375   5.923   4.699   7.699
   86PC     H5B 3376   5.791   4.777   7.788
   86PC     H5C 3377   5.754   4.683   7.645
   86PC     O33 3378   5.870   4.129   8.108
   86PC     O34 3379   6.033   4.287   8.214
   86PC     O21 3380   5.996   4.049   7.665
   86PC     C21 3381   5.893   4.065   7.575
   86PC     O22 3382   5.815   4.154   7.582
   87MY    H14T 3383   6.405   4.286   6.492
   87MY    C114 3384   6.340   4.213   6.444
   87MY    H14R 3385   6.242   4.235   6.486
   87MY    H14S 3386   6.350   4.249   6.341
   87MY    C113 3387   6.370   4.062   6.457
   87MY    H13R 3388   6.463   4.050   6.403
   87MY    H13S 3389   6.389   4.031   6.560
   87MY    C112 3390   6.285   3.967   6.377
   87MY    H12R 3391   6.284   4.004   6.274
   87MY    H12S 3392   6.336   3.871   6.391
   87MY    C111 3393   6.144   3.960   6.423
   87MY    H11R 3394   6.102   4.060   6.430
   87MY    H11S 3395   6.081   3.894   6.362
   87MY    C110 3396   6.142   3.911   6.573
   87MY    H10R 3397   6.190   3.814   6.587
   87MY    H10S 3398   6.196   3.984   6.634
   87MY     C19 3399   6.000   3.915   6.631
   87MY     H9R 3400   5.956   4.014   6.632
   87MY     H9S 3401   5.937   3.851   6.568
   87MY     C18 3402   6.003   3.863   6.779
   87MY     H8R 3403   6.027   3.757   6.782
   87MY     H8S 3404   6.075   3.918   6.841
   87MY     C17 3405   5.870   3.893   6.839
   87MY     H7R 3406   5.852   4.001   6.836
   87MY     H7S 3407   5.796   3.839   6.781
   87MY     C16 3408   5.860   3.838   6.984
   87MY     H6R 3409   5.758   3.801   6.997
   87MY     H6S 3410   5.931   3.756   6.995
   87MY     C15 3411   5.892   3.947   7.091
   87MY     H5R 3412   5.988   3.995   7.075
   87MY     H5S 3413   5.830   4.035   7.071
   87MY     C14 3414   5.874   3.891   7.233
   87MY     H4R 3415   5.778   3.840   7.232
   87MY     H4S 3416   5.946   3.810   7.248
   87MY     C13 3417   5.883   4.008   7.327
   87MY     H3R 3418   5.976   4.061   7.306
   87MY     H3S 3419   5.797   4.075   7.316
   87MY     C12 3420   5.884   3.956   7.475
   87MY     H2R 3421   5.799   3.891   7.496
   87MY     H2S 3422   5.975   3.896   7.485
   88MY    H14T 3423   2.350   1.815   6.275
   88MY    C114 3424   2.326   1.870   6.367
   88MY    H14R 3425   2.416   1.871   6.429
   88MY    H14S 3426   2.307   1.974   6.338
   88MY    C113 3427   2.208   1.800   6.431
   88MY    H13R 3428   2.120   1.797   6.368
   88MY    H13S 3429   2.218   1.693   6.451
   88MY    C112 3430   2.166   1.864   6.565
   88MY    H12R 3431   2.223   1.827   6.651
   88MY    H12S 3432   2.166   1.973   6.564
   88MY    C111 3433   2.020   1.825   6.609
   88MY    H11R 3434   1.950   1.832   6.524
   88MY    H11S 3435   2.025   1.721   6.641
   88MY    C110 3436   1.965   1.904   6.724
   88MY    H10R 3437   1.952   2.009   6.696
   88MY    H10S 3438   1.867   1.869   6.759
   88MY     C19 3439   2.043   1.904   6.851
   88MY     H9R 3440   2.037   1.808   6.903
   88MY     H9S 3441   2.150   1.922   6.834
   88MY     C18 3442   1.981   2.017   6.935
   88MY     H8R 3443   1.977   2.102   6.866
   88MY     H8S 3444   1.882   1.984   6.966
   88MY     C17 3445   2.075   2.047   7.056
   88MY     H7R 3446   2.075   1.962   7.123
   88MY     H7S 3447   2.175   2.058   7.014
   88MY     C16 3448   2.042   2.174   7.138
   88MY     H6R 3449   2.059   2.261   7.073
   88MY     H6S 3450   1.937   2.165   7.165
   88MY     C15 3451   2.134   2.190   7.260
   88MY     H5R 3452   2.120   2.100   7.321
   88MY     H5S 3453   2.240   2.181   7.237
   88MY     C14 3454   2.086   2.317   7.344
   88MY     H4R 3455   2.112   2.403   7.282
   88MY     H4S 3456   1.980   2.313   7.370
   88MY     C13 3457   2.165   2.337   7.474
   88MY     H3R 3458   2.142   2.442   7.492
   88MY     H3S 3459   2.123   2.283   7.559
   88MY     C12 3460   2.319   2.327   7.467
   88MY     H2R 3461   2.362   2.236   7.424
   88MY     H2S 3462   2.352   2.414   7.409
   89PC     C11 3463   2.381   2.355   7.605
   89PC     O12 3464   2.329   2.328   7.710
   89PC     O11 3465   2.501   2.420   7.590
   89PC      C1 3466   2.583   2.452   7.712
   89PC      HR 3467   2.661   2.525   7.690
   89PC      HS 3468   2.521   2.493   7.792
   89PC      C2 3469   2.665   2.325   7.766
   89PC      HX 3470   2.587   2.252   7.786
   89PC      C3 3471   2.758   2.363   7.890
   89PC      HA 3472   2.817   2.276   7.920
   89PC      HB 3473   2.830   2.434   7.851
   89PC     O31 3474   2.682   2.406   8.006
   89PC     P31 3475   2.645   2.310   8.117
   89PC     O32 3476   2.558   2.195   8.051
   89PC     C31 3477   2.422   2.215   7.998
   89PC     H1A 3478   2.430   2.306   7.940
   89PC     H1B 3479   2.392   2.134   7.931
   89PC     C32 3480   2.327   2.222   8.111
   89PC     H2A 3481   2.329   2.130   8.169
   89PC     H2B 3482   2.357   2.313   8.163
   89PC     N31 3483   2.179   2.240   8.083
   89PC     C33 3484   2.107   2.273   8.211
   89PC     H3A 3485   1.999   2.268   8.195
   89PC     H3B 3486   2.143   2.371   8.242
   89PC     H3C 3487   2.129   2.192   8.280
   89PC     C34 3488   2.117   2.127   8.010
   89PC     H4A 3489   2.091   2.040   8.070
   89PC     H4B 3490   2.182   2.102   7.926
   89PC     H4C 3491   2.027   2.169   7.965
   89PC     C35 3492   2.169   2.360   7.991
   89PC     H5A 3493   2.062   2.381   7.988
   89PC     H5B 3494   2.206   2.346   7.890
   89PC     H5C 3495   2.223   2.437   8.046
   89PC     O33 3496   2.771   2.251   8.172
   89PC     O34 3497   2.559   2.386   8.209
   89PC     O21 3498   2.754   2.277   7.661
   89PC     C21 3499   2.709   2.177   7.580
   89PC     O22 3500   2.605   2.116   7.597
   90MY    H14T 3501   2.966   1.472   6.414
   90MY    C114 3502   2.898   1.388   6.430
   90MY    H14R 3503   2.821   1.373   6.354
   90MY    H14S 3504   2.958   1.297   6.429
   90MY    C113 3505   2.844   1.402   6.571
   90MY    H13R 3506   2.788   1.495   6.579
   90MY    H13S 3507   2.778   1.316   6.590
   90MY    C112 3508   2.949   1.395   6.690
   90MY    H12R 3509   3.012   1.306   6.686
   90MY    H12S 3510   3.016   1.479   6.671
   90MY    C111 3511   2.877   1.390   6.822
   90MY    H11R 3512   2.823   1.483   6.843
   90MY    H11S 3513   2.800   1.313   6.819
   90MY    C110 3514   2.977   1.357   6.936
   90MY    H10R 3515   2.923   1.331   7.027
   90MY    H10S 3516   3.037   1.270   6.909
   90MY     C19 3517   3.077   1.467   6.978
   90MY     H9R 3518   3.127   1.430   7.068
   90MY     H9S 3519   3.152   1.486   6.901
   90MY     C18 3520   3.001   1.593   7.016
   90MY     H8R 3521   2.962   1.631   6.921
   90MY     H8S 3522   2.919   1.570   7.084
   90MY     C17 3523   3.087   1.704   7.077
   90MY     H7R 3524   3.143   1.670   7.164
   90MY     H7S 3525   3.158   1.732   6.999
   90MY     C16 3526   3.003   1.832   7.114
   90MY     H6R 3527   3.065   1.921   7.101
   90MY     H6S 3528   2.929   1.854   7.037
   90MY     C15 3529   2.928   1.843   7.241
   90MY     H5R 3530   2.829   1.798   7.235
   90MY     H5S 3531   2.977   1.795   7.326
   90MY     C14 3532   2.906   1.993   7.280
   90MY     H4R 3533   3.003   2.043   7.295
   90MY     H4S 3534   2.870   2.044   7.190
   90MY     C13 3535   2.805   2.011   7.402
   90MY     H3R 3536   2.705   1.984   7.368
   90MY     H3S 3537   2.834   1.953   7.490
   90MY     C12 3538   2.790   2.158   7.455
   90MY     H2R 3539   2.889   2.201   7.474
   90MY     H2S 3540   2.734   2.223   7.387
   91MY    H14T 3541   1.255   3.177   6.587
   91MY    C114 3542   1.176   3.220   6.649
   91MY    H14R 3543   1.196   3.190   6.753
   91MY    H14S 3544   1.185   3.328   6.633
   91MY    C113 3545   1.038   3.170   6.612
   91MY    H13R 3546   0.965   3.243   6.649
   91MY    H13S 3547   1.031   3.151   6.505
   91MY    C112 3548   0.993   3.043   6.686
   91MY    H12R 3549   0.903   3.014   6.633
   91MY    H12S 3550   1.064   2.960   6.685
   91MY    C111 3551   0.957   3.073   6.832
   91MY    H11R 3552   1.046   3.103   6.888
   91MY    H11S 3553   0.892   3.160   6.835
   91MY    C110 3554   0.884   2.950   6.894
   91MY    H10R 3555   0.809   2.917   6.821
   91MY    H10S 3556   0.952   2.865   6.898
   91MY     C19 3557   0.819   2.979   7.033
   91MY     H9R 3558   0.755   3.066   7.014
   91MY     H9S 3559   0.759   2.894   7.065
   91MY     C18 3560   0.920   3.021   7.133
   91MY     H8R 3561   1.000   2.948   7.140
   91MY     H8S 3562   0.973   3.111   7.100
   91MY     C17 3563   0.862   3.030   7.276
   91MY     H7R 3564   0.953   3.036   7.336
   91MY     H7S 3565   0.814   3.127   7.288
   91MY     C16 3566   0.780   2.910   7.335
   91MY     H6R 3567   0.682   2.907   7.287
   91MY     H6S 3568   0.814   2.808   7.316
   91MY     C15 3569   0.752   2.932   7.485
   91MY     H5R 3570   0.842   2.975   7.529
   91MY     H5S 3571   0.678   3.013   7.489
   91MY     C14 3572   0.697   2.814   7.564
   91MY     H4R 3573   0.778   2.742   7.574
   91MY     H4S 3574   0.677   2.860   7.661
   91MY     C13 3575   0.579   2.733   7.510
   91MY     H3R 3576   0.500   2.808   7.518
   91MY     H3S 3577   0.612   2.704   7.410
   91MY     C12 3578   0.539   2.596   7.579
   91MY     H2R 3579   0.620   2.525   7.564
   91MY     H2S 3580   0.516   2.606   7.686
   92PC     C11 3581   0.420   2.537   7.505
   92PC     O12 3582   0.357   2.591   7.417
   92PC     O11 3583   0.390   2.418   7.561
   92PC      C1 3584   0.270   2.353   7.508
   92PC      HR 3585   0.185   2.393   7.564
   92PC      HS 3586   0.245   2.372   7.403
   92PC      C2 3587   0.265   2.195   7.514
   92PC      HX 3588   0.163   2.165   7.487
   92PC      C3 3589   0.309   2.140   7.653
   92PC      HA 3590   0.355   2.041   7.644
   92PC      HB 3591   0.392   2.198   7.696
   92PC     O31 3592   0.200   2.147   7.750
   92PC     P31 3593   0.091   2.022   7.767
   92PC     O32 3594  -0.005   2.059   7.647
   92PC     C31 3595  -0.097   2.168   7.664
   92PC     H1A 3596  -0.169   2.147   7.743
   92PC     H1B 3597  -0.038   2.250   7.705
   92PC     C32 3598  -0.160   2.208   7.528
   92PC     H2A 3599  -0.230   2.289   7.547
   92PC     H2B 3600  -0.090   2.242   7.451
   92PC     N31 3601  -0.240   2.097   7.457
   92PC     C33 3602  -0.345   2.148   7.357
   92PC     H3A 3603  -0.427   2.196   7.410
   92PC     H3B 3604  -0.382   2.064   7.298
   92PC     H3C 3605  -0.299   2.213   7.283
   92PC     C34 3606  -0.321   2.007   7.551
   92PC     H4A 3607  -0.367   1.939   7.478
   92PC     H4B 3608  -0.395   2.071   7.598
   92PC     H4C 3609  -0.261   1.950   7.622
   92PC     C35 3610  -0.146   2.004   7.384
   92PC     H5A 3611  -0.086   1.945   7.454
   92PC     H5B 3612  -0.078   2.065   7.324
   92PC     H5C 3613  -0.203   1.936   7.320
   92PC     O33 3614   0.146   1.884   7.738
   92PC     O34 3615   0.022   2.038   7.899
   92PC     O21 3616   0.361   2.144   7.412
   92PC     C21 3617   0.328   2.017   7.361
   92PC     O22 3618   0.231   1.944   7.392
   93MY    H14T 3619   0.258   2.666   6.294
   93MY    C114 3620   0.170   2.702   6.240
   93MY    H14R 3621   0.186   2.805   6.209
   93MY    H14S 3622   0.170   2.646   6.146
   93MY    C113 3623   0.043   2.678   6.328
   93MY    H13R 3624  -0.039   2.723   6.272
   93MY    H13S 3625   0.016   2.573   6.338
   93MY    C112 3626   0.049   2.749   6.468
   93MY    H12R 3627   0.057   2.858   6.462
   93MY    H12S 3628  -0.040   2.738   6.529
   93MY    C111 3629   0.173   2.695   6.551
   93MY    H11R 3630   0.264   2.721   6.496
   93MY    H11S 3631   0.177   2.759   6.640
   93MY    C110 3632   0.161   2.545   6.590
   93MY    H10R 3633   0.074   2.505   6.536
   93MY    H10S 3634   0.249   2.493   6.551
   93MY     C19 3635   0.148   2.534   6.745
   93MY     H9R 3636   0.235   2.571   6.798
   93MY     H9S 3637   0.068   2.605   6.762
   93MY     C18 3638   0.101   2.397   6.803
   93MY     H8R 3639   0.058   2.415   6.902
   93MY     H8S 3640   0.023   2.357   6.738
   93MY     C17 3641   0.209   2.290   6.816
   93MY     H7R 3642   0.239   2.248   6.720
   93MY     H7S 3643   0.296   2.343   6.854
   93MY     C16 3644   0.178   2.183   6.922
   93MY     H6R 3645   0.150   2.233   7.015
   93MY     H6S 3646   0.090   2.125   6.891
   93MY     C15 3647   0.306   2.098   6.968
   93MY     H5R 3648   0.353   2.062   6.876
   93MY     H5S 3649   0.378   2.165   7.014
   93MY     C14 3650   0.252   1.988   7.061
   93MY     H4R 3651   0.182   2.027   7.135
   93MY     H4S 3652   0.196   1.912   7.006
   93MY     C13 3653   0.357   1.902   7.136
   93MY     H3R 3654   0.305   1.816   7.180
   93MY     H3S 3655   0.425   1.857   7.063
   93MY     C12 3656   0.427   1.980   7.249
   93MY     H2R 3657   0.522   1.942   7.288
   93MY     H2S 3658   0.457   2.073   7.198
   94MY    H14T 3659   1.387   5.279   6.299
   94MY    C114 3660   1.302   5.289   6.367
   94MY    H14R 3661   1.222   5.263   6.298
   94MY    H14S 3662   1.314   5.228   6.457
   94MY    C113 3663   1.287   5.432   6.414
   94MY    H13R 3664   1.246   5.493   6.334
   94MY    H13S 3665   1.217   5.448   6.497
   94MY    C112 3666   1.423   5.495   6.462
   94MY    H12R 3667   1.495   5.473   6.383
   94MY    H12S 3668   1.406   5.602   6.450
   94MY    C111 3669   1.467   5.455   6.606
   94MY    H11R 3670   1.396   5.504   6.673
   94MY    H11S 3671   1.464   5.347   6.622
   94MY    C110 3672   1.612   5.507   6.624
   94MY    H10R 3673   1.691   5.468   6.559
   94MY    H10S 3674   1.617   5.613   6.597
   94MY     C19 3675   1.665   5.498   6.769
   94MY     H9R 3676   1.587   5.510   6.844
   94MY     H9S 3677   1.718   5.404   6.782
   94MY     C18 3678   1.774   5.604   6.801
   94MY     H8R 3679   1.850   5.585   6.725
   94MY     H8S 3680   1.738   5.704   6.776
   94MY     C17 3681   1.849   5.587   6.934
   94MY     H7R 3682   1.927   5.511   6.928
   94MY     H7S 3683   1.898   5.684   6.948
   94MY     C16 3684   1.751   5.550   7.050
   94MY     H6R 3685   1.662   5.612   7.045
   94MY     H6S 3686   1.713   5.452   7.021
   94MY     C15 3687   1.816   5.540   7.184
   94MY     H5R 3688   1.744   5.513   7.262
   94MY     H5S 3689   1.899   5.470   7.188
   94MY     C14 3690   1.866   5.682   7.219
   94MY     H4R 3691   1.949   5.716   7.158
   94MY     H4S 3692   1.784   5.751   7.197
   94MY     C13 3693   1.918   5.704   7.365
   94MY     H3R 3694   1.838   5.688   7.438
   94MY     H3S 3695   1.995   5.630   7.388
   94MY     C12 3696   1.985   5.844   7.387
   94MY     H2R 3697   2.073   5.864   7.325
   94MY     H2S 3698   1.914   5.922   7.362
   95PC     C11 3699   2.030   5.842   7.535
   95PC     O12 3700   1.985   5.922   7.613
   95PC     O11 3701   2.118   5.749   7.574
   95PC      C1 3702   2.167   5.741   7.712
   95PC      HR 3703   2.269   5.702   7.717
   95PC      HS 3704   2.152   5.839   7.758
   95PC      C2 3705   2.088   5.645   7.797
   95PC      HX 3706   1.985   5.680   7.789
   95PC      C3 3707   2.142   5.639   7.935
   95PC      HA 3708   2.249   5.616   7.935
   95PC      HB 3709   2.134   5.735   7.986
   95PC     O31 3710   2.069   5.534   8.017
   95PC     P31 3711   2.118   5.481   8.157
   95PC     O32 3712   2.013   5.540   8.265
   95PC     C31 3713   2.029   5.673   8.319
   95PC     H1A 3714   2.081   5.737   8.248
   95PC     H1B 3715   1.932   5.721   8.333
   95PC     C32 3716   2.111   5.663   8.446
   95PC     H2A 3717   2.215   5.646   8.417
   95PC     H2B 3718   2.103   5.760   8.497
   95PC     N31 3719   2.065   5.571   8.554
   95PC     C33 3720   1.913   5.562   8.559
   95PC     H3A 3721   1.880   5.507   8.647
   95PC     H3B 3722   1.868   5.524   8.467
   95PC     H3C 3723   1.876   5.663   8.574
   95PC     C34 3724   2.119   5.625   8.683
   95PC     H4A 3725   2.086   5.555   8.760
   95PC     H4B 3726   2.072   5.720   8.707
   95PC     H4C 3727   2.228   5.626   8.677
   95PC     C35 3728   2.108   5.430   8.541
   95PC     H5A 3729   2.068   5.385   8.450
   95PC     H5B 3730   2.087   5.369   8.629
   95PC     H5C 3731   2.217   5.436   8.544
   95PC     O33 3732   2.108   5.333   8.149
   95PC     O34 3733   2.245   5.546   8.198
   95PC     O21 3734   2.107   5.515   7.728
   95PC     C21 3735   1.998   5.433   7.711
   95PC     O22 3736   1.885   5.470   7.738
   96MY    H14T 3737   2.311   4.935   6.376
   96MY    C114 3738   2.348   4.846   6.428
   96MY    H14R 3739   2.315   4.757   6.373
   96MY    H14S 3740   2.456   4.842   6.420
   96MY    C113 3741   2.299   4.833   6.575
   96MY    H13R 3742   2.190   4.839   6.578
   96MY    H13S 3743   2.343   4.743   6.618
   96MY    C112 3744   2.350   4.951   6.655
   96MY    H12R 3745   2.458   4.958   6.643
   96MY    H12S 3746   2.299   5.038   6.612
   96MY    C111 3747   2.298   4.923   6.799
   96MY    H11R 3748   2.191   4.902   6.810
   96MY    H11S 3749   2.341   4.825   6.820
   96MY    C110 3750   2.343   5.018   6.906
   96MY    H10R 3751   2.451   5.018   6.921
   96MY    H10S 3752   2.304   5.120   6.900
   96MY     C19 3753   2.297   4.962   7.039
   96MY     H9R 3754   2.189   4.948   7.026
   96MY     H9S 3755   2.339   4.864   7.064
   96MY     C18 3756   2.304   5.052   7.162
   96MY     H8R 3757   2.407   5.046   7.197
   96MY     H8S 3758   2.284   5.153   7.126
   96MY     C17 3759   2.211   5.003   7.276
   96MY     H7R 3760   2.108   4.988   7.242
   96MY     H7S 3761   2.243   4.900   7.295
   96MY     C16 3762   2.215   5.085   7.409
   96MY     H6R 3763   2.318   5.068   7.442
   96MY     H6S 3764   2.214   5.192   7.388
   96MY     C15 3765   2.111   5.034   7.526
   96MY     H5R 3766   2.110   4.925   7.529
   96MY     H5S 3767   2.142   5.073   7.623
   96MY     C14 3768   1.965   5.093   7.514
   96MY     H4R 3769   1.919   5.076   7.416
   96MY     H4S 3770   1.905   5.038   7.586
   96MY     C13 3771   1.963   5.242   7.540
   96MY     H3R 3772   2.009   5.286   7.451
   96MY     H3S 3773   1.860   5.275   7.551
   96MY     C12 3774   2.032   5.288   7.665
   96MY     H2R 3775   2.005   5.216   7.743
   96MY     H2S 3776   2.140   5.285   7.650
   97MY    H14T 3777   1.600   2.003   6.365
   97MY    C114 3778   1.626   2.046   6.462
   97MY    H14R 3779   1.720   2.102   6.458
   97MY    H14S 3780   1.546   2.115   6.491
   97MY    C113 3781   1.628   1.937   6.568
   97MY    H13R 3782   1.709   1.867   6.544
   97MY    H13S 3783   1.654   1.978   6.666
   97MY    C112 3784   1.506   1.851   6.590
   97MY    H12R 3785   1.417   1.910   6.607
   97MY    H12S 3786   1.486   1.790   6.501
   97MY    C111 3787   1.535   1.762   6.716
   97MY    H11R 3788   1.627   1.710   6.688
   97MY    H11S 3789   1.566   1.823   6.801
   97MY    C110 3790   1.424   1.658   6.755
   97MY    H10R 3791   1.404   1.588   6.673
   97MY    H10S 3792   1.455   1.589   6.834
   97MY     C19 3793   1.287   1.726   6.779
   97MY     H9R 3794   1.257   1.788   6.694
   97MY     H9S 3795   1.215   1.645   6.791
   97MY     C18 3796   1.291   1.816   6.900
   97MY     H8R 3797   1.358   1.903   6.905
   97MY     H8S 3798   1.195   1.867   6.904
   97MY     C17 3799   1.319   1.749   7.034
   97MY     H7R 3800   1.426   1.728   7.032
   97MY     H7S 3801   1.298   1.814   7.119
   97MY     C16 3802   1.246   1.610   7.061
   97MY     H6R 3803   1.142   1.636   7.046
   97MY     H6S 3804   1.276   1.527   6.996
   97MY     C15 3805   1.265   1.565   7.209
   97MY     H5R 3806   1.195   1.626   7.267
   97MY     H5S 3807   1.231   1.461   7.212
   97MY     C14 3808   1.409   1.576   7.267
   97MY     H4R 3809   1.480   1.517   7.208
   97MY     H4S 3810   1.437   1.681   7.273
   97MY     C13 3811   1.412   1.512   7.409
   97MY     H3R 3812   1.342   1.428   7.408
   97MY     H3S 3813   1.511   1.470   7.421
   97MY     C12 3814   1.372   1.617   7.511
   97MY     H2R 3815   1.429   1.711   7.506
   97MY     H2S 3816   1.267   1.645   7.500
   98PC     C11 3817   1.402   1.562   7.639
   98PC     O12 3818   1.355   1.456   7.686
   98PC     O11 3819   1.475   1.642   7.715
   98PC      C1 3820   1.491   1.625   7.856
   98PC      HR 3821   1.393   1.607   7.901
   98PC      HS 3822   1.552   1.537   7.879
   98PC      C2 3823   1.547   1.746   7.930
   98PC      HX 3824   1.642   1.768   7.881
   98PC      C3 3825   1.556   1.711   8.083
   98PC      HA 3826   1.635   1.640   8.107
   98PC      HB 3827   1.589   1.803   8.133
   98PC     O31 3828   1.425   1.664   8.141
   98PC     P31 3829   1.416   1.652   8.299
   98PC     O32 3830   1.341   1.786   8.334
   98PC     C31 3831   1.420   1.906   8.357
   98PC     H1A 3832   1.480   1.883   8.445
   98PC     H1B 3833   1.474   1.921   8.264
   98PC     C32 3834   1.326   2.022   8.389
   98PC     H2A 3835   1.251   1.991   8.462
   98PC     H2B 3836   1.390   2.100   8.430
   98PC     N31 3837   1.254   2.083   8.268
   98PC     C33 3838   1.132   2.003   8.223
   98PC     H3A 3839   1.109   2.029   8.120
   98PC     H3B 3840   1.043   2.018   8.284
   98PC     H3C 3841   1.156   1.897   8.231
   98PC     C34 3842   1.345   2.096   8.152
   98PC     H4A 3843   1.442   2.138   8.180
   98PC     H4B 3844   1.297   2.164   8.082
   98PC     H4C 3845   1.352   2.001   8.098
   98PC     C35 3846   1.209   2.224   8.297
   98PC     H5A 3847   1.303   2.272   8.323
   98PC     H5B 3848   1.140   2.223   8.381
   98PC     H5C 3849   1.174   2.271   8.205
   98PC     O33 3850   1.320   1.538   8.328
   98PC     O34 3851   1.549   1.649   8.362
   98PC     O21 3852   1.461   1.859   7.923
   98PC     C21 3853   1.453   1.936   7.814
   98PC     O22 3854   1.537   1.925   7.726
   99MY    H14T 3855   0.695   1.927   6.395
   99MY    C114 3856   0.732   1.957   6.493
   99MY    H14R 3857   0.818   1.893   6.516
   99MY    H14S 3858   0.761   2.063   6.495
   99MY    C113 3859   0.628   1.928   6.604
   99MY    H13R 3860   0.562   2.014   6.613
   99MY    H13S 3861   0.567   1.843   6.574
   99MY    C112 3862   0.692   1.892   6.739
   99MY    H12R 3863   0.617   1.891   6.818
   99MY    H12S 3864   0.731   1.790   6.727
   99MY    C111 3865   0.795   1.988   6.796
   99MY    H11R 3866   0.882   2.001   6.731
   99MY    H11S 3867   0.751   2.085   6.821
   99MY    C110 3868   0.844   1.919   6.926
   99MY    H10R 3869   0.761   1.886   6.990
   99MY    H10S 3870   0.889   1.826   6.892
   99MY     C19 3871   0.928   2.013   7.011
   99MY     H9R 3872   1.006   2.048   6.943
   99MY     H9S 3873   0.868   2.095   7.050
   99MY     C18 3874   0.990   1.949   7.125
   99MY     H8R 3875   0.905   1.919   7.187
   99MY     H8S 3876   1.051   1.864   7.094
   99MY     C17 3877   1.080   2.046   7.210
   99MY     H7R 3878   1.169   2.065   7.149
   99MY     H7S 3879   1.021   2.134   7.237
   99MY     C16 3880   1.116   1.973   7.339
   99MY     H6R 3881   1.018   1.947   7.381
   99MY     H6S 3882   1.175   1.884   7.316
   99MY     C15 3883   1.185   2.068   7.435
   99MY     H5R 3884   1.274   2.105   7.382
   99MY     H5S 3885   1.129   2.154   7.471
   99MY     C14 3886   1.232   1.998   7.567
   99MY     H4R 3887   1.144   1.958   7.618
   99MY     H4S 3888   1.297   1.916   7.537
   99MY     C13 3889   1.297   2.094   7.665
   99MY     H3R 3890   1.379   2.147   7.615
   99MY     H3S 3891   1.229   2.175   7.694
   99MY     C12 3892   1.328   2.022   7.800
   99MY     H2R 3893   1.332   2.095   7.881
   99MY     H2S 3894   1.236   1.965   7.815
  100MY    H14T 3895   1.993   3.741   6.661
  100MY    C114 3896   1.955   3.824   6.601
  100MY    H14R 3897   2.024   3.849   6.520
  100MY    H14S 3898   1.864   3.785   6.554
  100MY    C113 3899   1.903   3.942   6.681
  100MY    H13R 3900   1.883   4.032   6.623
  100MY    H13S 3901   1.806   3.912   6.720
  100MY    C112 3902   1.999   3.978   6.791
  100MY    H12R 3903   1.997   3.898   6.865
  100MY    H12S 3904   2.098   4.004   6.753
  100MY    C111 3905   1.951   4.103   6.867
  100MY    H11R 3906   1.950   4.187   6.797
  100MY    H11S 3907   1.847   4.087   6.898
  100MY    C110 3908   2.034   4.134   6.991
  100MY    H10R 3909   1.968   4.196   7.053
  100MY    H10S 3910   2.036   4.039   7.045
  100MY     C19 3911   2.172   4.197   6.966
  100MY     H9R 3912   2.244   4.138   6.909
  100MY     H9S 3913   2.161   4.285   6.903
  100MY     C18 3914   2.239   4.246   7.104
  100MY     H8R 3915   2.284   4.161   7.155
  100MY     H8S 3916   2.325   4.310   7.084
  100MY     C17 3917   2.151   4.327   7.206
  100MY     H7R 3918   2.060   4.275   7.236
  100MY     H7S 3919   2.218   4.334   7.292
  100MY     C16 3920   2.107   4.467   7.144
  100MY     H6R 3921   2.201   4.519   7.125
  100MY     H6S 3922   2.045   4.448   7.056
  100MY     C15 3923   2.037   4.550   7.247
  100MY     H5R 3924   2.097   4.568   7.337
  100MY     H5S 3925   2.030   4.652   7.209
  100MY     C14 3926   1.899   4.496   7.283
  100MY     H4R 3927   1.840   4.500   7.192
  100MY     H4S 3928   1.909   4.394   7.319
  100MY     C13 3929   1.820   4.565   7.389
  100MY     H3R 3930   1.806   4.665   7.346
  100MY     H3S 3931   1.731   4.502   7.396
  100MY     C12 3932   1.887   4.558   7.526
  100MY     H2R 3933   1.953   4.471   7.529
  100MY     H2S 3934   1.946   4.648   7.548
  101PC     C11 3935   1.780   4.561   7.639
  101PC     O12 3936   1.726   4.662   7.673
  101PC     O11 3937   1.763   4.443   7.690
  101PC      C1 3938   1.662   4.425   7.789
  101PC      HR 3939   1.691   4.493   7.870
  101PC      HS 3940   1.565   4.459   7.751
  101PC      C2 3941   1.650   4.276   7.842
  101PC      HX 3942   1.585   4.271   7.929
  101PC      C3 3943   1.790   4.227   7.896
  101PC      HA 3944   1.855   4.208   7.811
  101PC      HB 3945   1.836   4.304   7.958
  101PC     O31 3946   1.765   4.111   7.977
  101PC     P31 3947   1.844   4.065   8.111
  101PC     O32 3948   1.778   4.155   8.226
  101PC     C31 3949   1.821   4.295   8.239
  101PC     H1A 3950   1.915   4.307   8.183
  101PC     H1B 3951   1.743   4.364   8.207
  101PC     C32 3952   1.851   4.325   8.385
  101PC     H2A 3953   1.876   4.234   8.438
  101PC     H2B 3954   1.943   4.382   8.399
  101PC     N31 3955   1.741   4.388   8.473
  101PC     C33 3956   1.787   4.382   8.611
  101PC     H3A 3957   1.883   4.431   8.599
  101PC     H3B 3958   1.795   4.281   8.651
  101PC     H3C 3959   1.727   4.444   8.678
  101PC     C34 3960   1.607   4.331   8.465
  101PC     H4A 3961   1.617   4.224   8.483
  101PC     H4B 3962   1.567   4.348   8.365
  101PC     H4C 3963   1.548   4.382   8.541
  101PC     C35 3964   1.742   4.536   8.436
  101PC     H5A 3965   1.832   4.588   8.469
  101PC     H5B 3966   1.682   4.587   8.511
  101PC     H5C 3967   1.704   4.556   8.336
  101PC     O33 3968   1.811   3.922   8.134
  101PC     O34 3969   1.989   4.097   8.102
  101PC     O21 3970   1.601   4.182   7.740
  101PC     C21 3971   1.467   4.169   7.735
  101PC     O22 3972   1.386   4.240   7.799
  102MY    H14T 3973   1.519   3.962   6.694
  102MY    C114 3974   1.462   3.908   6.618
  102MY    H14R 3975   1.512   3.925   6.523
  102MY    H14S 3976   1.476   3.803   6.644
  102MY    C113 3977   1.319   3.969   6.617
  102MY    H13R 3978   1.325   4.077   6.597
  102MY    H13S 3979   1.259   3.914   6.544
  102MY    C112 3980   1.236   3.950   6.745
  102MY    H12R 3981   1.220   3.843   6.759
  102MY    H12S 3982   1.299   3.985   6.827
  102MY    C111 3983   1.094   4.011   6.751
  102MY    H11R 3984   1.038   3.987   6.660
  102MY    H11S 3985   1.035   3.977   6.837
  102MY    C110 3986   1.095   4.166   6.752
  102MY    H10R 3987   1.130   4.202   6.655
  102MY    H10S 3988   0.993   4.207   6.752
  102MY     C19 3989   1.175   4.226   6.866
  102MY     H9R 3990   1.281   4.204   6.852
  102MY     H9S 3991   1.177   4.335   6.870
  102MY     C18 3992   1.140   4.171   7.008
  102MY     H8R 3993   1.036   4.189   7.035
  102MY     H8S 3994   1.169   4.067   7.017
  102MY     C17 3995   1.218   4.261   7.108
  102MY     H7R 3996   1.324   4.251   7.084
  102MY     H7S 3997   1.170   4.359   7.099
  102MY     C16 3998   1.206   4.203   7.249
  102MY     H6R 3999   1.102   4.173   7.265
  102MY     H6S 4000   1.268   4.113   7.249
  102MY     C15 4001   1.257   4.298   7.354
  102MY     H5R 4002   1.350   4.349   7.326
  102MY     H5S 4003   1.183   4.377   7.366
  102MY     C14 4004   1.282   4.226   7.490
  102MY     H4R 4005   1.314   4.306   7.558
  102MY     H4S 4006   1.185   4.200   7.534
  102MY     C13 4007   1.400   4.122   7.495
  102MY     H3R 4008   1.375   4.042   7.425
  102MY     H3S 4009   1.492   4.171   7.464
  102MY     C12 4010   1.419   4.063   7.637
  102MY     H2R 4011   1.331   4.018   7.683
  102MY     H2S 4012   1.495   3.984   7.636
  103MY    H14T 4013   5.179   5.242   6.076
  103MY    C114 4014   5.123   5.217   6.167
  103MY    H14R 4015   5.164   5.277   6.249
  103MY    H14S 4016   5.020   5.242   6.138
  103MY    C113 4017   5.139   5.064   6.203
  103MY    H13R 4018   5.072   4.993   6.154
  103MY    H13S 4019   5.235   5.035   6.159
  103MY    C112 4020   5.158   5.028   6.355
  103MY    H12R 4021   5.214   4.934   6.364
  103MY    H12S 4022   5.223   5.101   6.404
  103MY    C111 4023   5.021   5.028   6.424
  103MY    H11R 4024   4.981   5.129   6.415
  103MY    H11S 4025   4.947   4.968   6.370
  103MY    C110 4026   5.024   4.981   6.564
  103MY    H10R 4027   4.917   4.974   6.588
  103MY    H10S 4028   5.064   4.882   6.588
  103MY     C19 4029   5.088   5.078   6.659
  103MY     H9R 4030   5.187   5.098   6.617
  103MY     H9S 4031   5.038   5.176   6.658
  103MY     C18 4032   5.103   5.026   6.805
  103MY     H8R 4033   5.009   4.988   6.844
  103MY     H8S 4034   5.175   4.944   6.803
  103MY     C17 4035   5.170   5.126   6.909
  103MY     H7R 4036   5.252   5.190   6.877
  103MY     H7S 4037   5.082   5.190   6.926
  103MY     C16 4038   5.203   5.061   7.046
  103MY     H6R 4039   5.164   5.117   7.131
  103MY     H6S 4040   5.148   4.966   7.048
  103MY     C15 4041   5.353   5.047   7.055
  103MY     H5R 4042   5.380   4.981   6.972
  103MY     H5S 4043   5.405   5.140   7.031
  103MY     C14 4044   5.412   4.979   7.185
  103MY     H4R 4045   5.374   5.028   7.275
  103MY     H4S 4046   5.365   4.880   7.180
  103MY     C13 4047   5.564   4.964   7.165
  103MY     H3R 4048   5.609   4.885   7.225
  103MY     H3S 4049   5.586   4.947   7.059
  103MY     C12 4050   5.632   5.100   7.193
  103MY     H2R 4051   5.738   5.082   7.175
  103MY     H2S 4052   5.599   5.182   7.129
  104PC     C11 4053   5.622   5.160   7.335
  104PC     O12 4054   5.629   5.086   7.429
  104PC     O11 4055   5.605   5.297   7.341
  104PC      C1 4056   5.596   5.359   7.471
  104PC      HR 4057   5.574   5.465   7.458
  104PC      HS 4058   5.509   5.325   7.527
  104PC      C2 4059   5.725   5.333   7.552
  104PC      HX 4060   5.748   5.227   7.564
  104PC      C3 4061   5.720   5.388   7.695
  104PC      HA 4062   5.819   5.384   7.742
  104PC      HB 4063   5.690   5.493   7.691
  104PC     O31 4064   5.623   5.311   7.766
  104PC     P31 4065   5.668   5.191   7.866
  104PC     O32 4066   5.706   5.253   8.005
  104PC     C31 4067   5.597   5.287   8.095
  104PC     H1A 4068   5.613   5.386   8.140
  104PC     H1B 4069   5.503   5.293   8.040
  104PC     C32 4070   5.607   5.171   8.202
  104PC     H2A 4071   5.521   5.178   8.267
  104PC     H2B 4072   5.613   5.074   8.152
  104PC     N31 4073   5.735   5.168   8.295
  104PC     C33 4074   5.765   5.302   8.341
  104PC     H3A 4075   5.677   5.340   8.394
  104PC     H3B 4076   5.764   5.370   8.256
  104PC     H3C 4077   5.857   5.308   8.398
  104PC     C34 4078   5.850   5.099   8.225
  104PC     H4A 4079   5.831   4.992   8.225
  104PC     H4B 4080   5.946   5.118   8.272
  104PC     H4C 4081   5.849   5.136   8.123
  104PC     C35 4082   5.704   5.091   8.427
  104PC     H5A 4083   5.799   5.082   8.479
  104PC     H5B 4084   5.661   4.993   8.407
  104PC     H5C 4085   5.635   5.153   8.485
  104PC     O33 4086   5.545   5.108   7.887
  104PC     O34 4087   5.789   5.127   7.807
  104PC     O21 4088   5.834   5.393   7.483
  104PC     C21 4089   5.960   5.352   7.506
  104PC     O22 4090   6.001   5.271   7.584
  105MY    H14T 4091   5.431   5.836   7.339
  105MY    C114 4092   5.377   5.813   7.247
  105MY    H14R 4093   5.290   5.752   7.270
  105MY    H14S 4094   5.337   5.908   7.210
  105MY    C113 4095   5.454   5.731   7.141
  105MY    H13R 4096   5.543   5.790   7.120
  105MY    H13S 4097   5.491   5.639   7.186
  105MY    C112 4098   5.375   5.715   7.008
  105MY    H12R 4099   5.277   5.668   7.024
  105MY    H12S 4100   5.366   5.817   6.971
  105MY    C111 4101   5.456   5.634   6.903
  105MY    H11R 4102   5.421   5.654   6.801
  105MY    H11S 4103   5.556   5.676   6.888
  105MY    C110 4104   5.480   5.480   6.924
  105MY    H10R 4105   5.554   5.474   7.003
  105MY    H10S 4106   5.387   5.434   6.959
  105MY     C19 4107   5.553   5.408   6.809
  105MY     H9R 4108   5.563   5.304   6.841
  105MY     H9S 4109   5.482   5.423   6.727
  105MY     C18 4110   5.692   5.478   6.774
  105MY     H8R 4111   5.739   5.425   6.691
  105MY     H8S 4112   5.672   5.582   6.744
  105MY     C17 4113   5.795   5.480   6.887
  105MY     H7R 4114   5.887   5.527   6.853
  105MY     H7S 4115   5.761   5.552   6.963
  105MY     C16 4116   5.822   5.340   6.945
  105MY     H6R 4117   5.731   5.304   6.995
  105MY     H6S 4118   5.832   5.271   6.861
  105MY     C15 4119   5.939   5.329   7.043
  105MY     H5R 4120   5.967   5.225   7.058
  105MY     H5S 4121   6.019   5.378   6.987
  105MY     C14 4122   5.933   5.403   7.178
  105MY     H4R 4123   5.928   5.511   7.164
  105MY     H4S 4124   5.837   5.382   7.227
  105MY     C13 4125   6.059   5.374   7.270
  105MY     H3R 4126   6.068   5.265   7.276
  105MY     H3S 4127   6.153   5.415   7.231
  105MY     C12 4128   6.053   5.435   7.413
  105MY     H2R 4129   6.152   5.442   7.459
  105MY     H2S 4130   6.018   5.538   7.417
  106MY    H14T 4131   3.318   3.779   6.547
  106MY    C114 4132   3.371   3.852   6.485
  106MY    H14R 4133   3.309   3.897   6.407
  106MY    H14S 4134   3.450   3.788   6.444
  106MY    C113 4135   3.425   3.960   6.584
  106MY    H13R 4136   3.461   3.909   6.674
  106MY    H13S 4137   3.518   4.004   6.547
  106MY    C112 4138   3.329   4.070   6.640
  106MY    H12R 4139   3.330   4.158   6.576
  106MY    H12S 4140   3.227   4.031   6.648
  106MY    C111 4141   3.369   4.119   6.776
  106MY    H11R 4142   3.391   4.033   6.840
  106MY    H11S 4143   3.465   4.167   6.754
  106MY    C110 4144   3.276   4.228   6.838
  106MY    H10R 4145   3.270   4.318   6.777
  106MY    H10S 4146   3.172   4.195   6.845
  106MY     C19 4147   3.323   4.272   6.980
  106MY     H9R 4148   3.423   4.315   6.974
  106MY     H9S 4149   3.261   4.357   7.012
  106MY     C18 4150   3.314   4.154   7.087
  106MY     H8R 4151   3.370   4.062   7.067
  106MY     H8S 4152   3.349   4.200   7.180
  106MY     C17 4153   3.163   4.105   7.104
  106MY     H7R 4154   3.100   4.193   7.088
  106MY     H7S 4155   3.136   4.026   7.033
  106MY     C16 4156   3.149   4.046   7.244
  106MY     H6R 4157   3.067   3.976   7.258
  106MY     H6S 4158   3.238   3.985   7.262
  106MY     C15 4159   3.136   4.142   7.360
  106MY     H5R 4160   3.232   4.164   7.407
  106MY     H5S 4161   3.092   4.233   7.320
  106MY     C14 4162   3.049   4.092   7.481
  106MY     H4R 4163   3.042   4.184   7.539
  106MY     H4S 4164   2.948   4.070   7.447
  106MY     C13 4165   3.113   3.971   7.557
  106MY     H3R 4166   3.083   3.876   7.513
  106MY     H3S 4167   3.221   3.986   7.546
  106MY     C12 4168   3.085   3.975   7.709
  106MY     H2R 4169   3.116   4.077   7.731
  106MY     H2S 4170   2.977   3.967   7.723
  107PC     C11 4171   3.166   3.880   7.790
  107PC     O12 4172   3.245   3.798   7.751
  107PC     O11 4173   3.147   3.901   7.921
  107PC      C1 4174   3.219   3.815   8.022
  107PC      HR 4175   3.146   3.792   8.099
  107PC      HS 4176   3.241   3.719   7.974
  107PC      C2 4177   3.350   3.880   8.077
  107PC      HX 4178   3.396   3.813   8.150
  107PC      C3 4179   3.327   4.009   8.159
  107PC      HA 4180   3.425   4.055   8.173
  107PC      HB 4181   3.261   4.079   8.109
  107PC     O31 4182   3.266   3.979   8.283
  107PC     P31 4183   3.330   3.895   8.405
  107PC     O32 4184   3.298   3.745   8.364
  107PC     C31 4185   3.225   3.655   8.453
  107PC     H1A 4186   3.254   3.554   8.423
  107PC     H1B 4187   3.255   3.674   8.557
  107PC     C32 4188   3.068   3.680   8.438
  107PC     H2A 4189   3.036   3.774   8.484
  107PC     H2B 4190   3.038   3.687   8.333
  107PC     N31 4191   2.977   3.563   8.486
  107PC     C33 4192   2.981   3.556   8.637
  107PC     H3A 4193   2.942   3.653   8.668
  107PC     H3B 4194   3.082   3.528   8.667
  107PC     H3C 4195   2.914   3.483   8.684
  107PC     C34 4196   3.019   3.434   8.418
  107PC     H4A 4197   3.122   3.402   8.432
  107PC     H4B 4198   2.985   3.433   8.314
  107PC     H4C 4199   2.968   3.351   8.467
  107PC     C35 4200   2.841   3.589   8.437
  107PC     H5A 4201   2.844   3.590   8.328
  107PC     H5B 4202   2.806   3.689   8.462
  107PC     H5C 4203   2.783   3.507   8.480
  107PC     O33 4204   3.477   3.908   8.392
  107PC     O34 4205   3.266   3.922   8.539
  107PC     O21 4206   3.444   3.904   7.964
  107PC     C21 4207   3.543   3.823   7.935
  107PC     O22 4208   3.583   3.731   8.004
  108MY    H14T 4209   3.920   3.788   6.382
  108MY    C114 4210   3.811   3.790   6.395
  108MY    H14R 4211   3.768   3.889   6.383
  108MY    H14S 4212   3.762   3.723   6.324
  108MY    C113 4213   3.787   3.738   6.538
  108MY    H13R 4214   3.684   3.706   6.554
  108MY    H13S 4215   3.844   3.646   6.553
  108MY    C112 4216   3.830   3.852   6.636
  108MY    H12R 4217   3.932   3.884   6.616
  108MY    H12S 4218   3.760   3.936   6.625
  108MY    C111 4219   3.816   3.810   6.788
  108MY    H11R 4220   3.733   3.739   6.797
  108MY    H11S 4221   3.908   3.758   6.815
  108MY    C110 4222   3.792   3.929   6.883
  108MY    H10R 4223   3.883   3.989   6.891
  108MY    H10S 4224   3.714   3.998   6.849
  108MY     C19 4225   3.749   3.869   7.013
  108MY     H9R 4226   3.650   3.826   6.993
  108MY     H9S 4227   3.815   3.786   7.040
  108MY     C18 4228   3.738   3.969   7.128
  108MY     H8R 4229   3.837   4.014   7.138
  108MY     H8S 4230   3.670   4.048   7.095
  108MY     C17 4231   3.692   3.907   7.260
  108MY     H7R 4232   3.591   3.867   7.246
  108MY     H7S 4233   3.761   3.829   7.292
  108MY     C16 4234   3.689   4.011   7.375
  108MY     H6R 4235   3.791   4.028   7.412
  108MY     H6S 4236   3.642   4.103   7.340
  108MY     C15 4237   3.603   3.954   7.494
  108MY     H5R 4238   3.602   4.038   7.564
  108MY     H5S 4239   3.497   3.948   7.467
  108MY     C14 4240   3.657   3.829   7.567
  108MY     H4R 4241   3.669   3.737   7.510
  108MY     H4S 4242   3.755   3.850   7.611
  108MY     C13 4243   3.581   3.790   7.696
  108MY     H3R 4244   3.473   3.796   7.686
  108MY     H3S 4245   3.590   3.682   7.713
  108MY     C12 4246   3.625   3.873   7.820
  108MY     H2R 4247   3.731   3.871   7.844
  108MY     H2S 4248   3.603   3.978   7.797
  109MY    H14T 4249   6.237   4.554   6.643
  109MY    C114 4250   6.213   4.532   6.747
  109MY    H14R 4251   6.269   4.599   6.812
  109MY    H14S 4252   6.103   4.535   6.749
  109MY    C113 4253   6.254   4.384   6.776
  109MY    H13R 4254   6.217   4.330   6.688
  109MY    H13S 4255   6.364   4.384   6.774
  109MY    C112 4256   6.206   4.321   6.907
  109MY    H12R 4257   6.190   4.398   6.983
  109MY    H12S 4258   6.114   4.269   6.882
  109MY    C111 4259   6.294   4.227   6.981
  109MY    H11R 4260   6.254   4.205   7.080
  109MY    H11S 4261   6.304   4.129   6.934
  109MY    C110 4262   6.440   4.278   6.995
  109MY    H10R 4263   6.489   4.264   6.899
  109MY    H10S 4264   6.426   4.380   7.030
  109MY     C19 4265   6.506   4.192   7.098
  109MY     H9R 4266   6.436   4.174   7.179
  109MY     H9S 4267   6.534   4.104   7.038
  109MY     C18 4268   6.647   4.237   7.141
  109MY     H8R 4269   6.683   4.169   7.218
  109MY     H8S 4270   6.710   4.219   7.053
  109MY     C17 4271   6.660   4.382   7.189
  109MY     H7R 4272   6.762   4.390   7.227
  109MY     H7S 4273   6.656   4.447   7.102
  109MY     C16 4274   6.567   4.432   7.298
  109MY     H6R 4275   6.594   4.534   7.325
  109MY     H6S 4276   6.466   4.435   7.256
  109MY     C15 4277   6.565   4.352   7.430
  109MY     H5R 4278   6.475   4.383   7.482
  109MY     H5S 4279   6.543   4.249   7.401
  109MY     C14 4280   6.691   4.358   7.512
  109MY     H4R 4281   6.675   4.292   7.597
  109MY     H4S 4282   6.774   4.331   7.446
  109MY     C13 4283   6.722   4.497   7.561
  109MY     H3R 4284   6.828   4.492   7.589
  109MY     H3S 4285   6.714   4.568   7.479
  109MY     C12 4286   6.643   4.555   7.681
  109MY     H2R 4287   6.667   4.661   7.690
  109MY     H2S 4288   6.535   4.544   7.671
  110PC     C11 4289   6.697   4.486   7.808
  110PC     O12 4290   6.775   4.537   7.882
  110PC     O11 4291   6.638   4.365   7.833
  110PC      C1 4292   6.685   4.295   7.949
  110PC      HR 4293   6.792   4.274   7.945
  110PC      HS 4294   6.661   4.352   8.039
  110PC      C2 4295   6.625   4.151   7.958
  110PC      HX 4296   6.522   4.161   7.993
  110PC      C3 4297   6.691   4.051   8.056
  110PC      HA 4298   6.626   3.966   8.077
  110PC      HB 4299   6.773   4.005   7.999
  110PC     O31 4300   6.730   4.100   8.181
  110PC     P31 4301   6.622   4.128   8.294
  110PC     O32 4302   6.643   4.011   8.397
  110PC     C31 4303   6.601   3.872   8.370
  110PC     H1A 4304   6.588   3.817   8.463
  110PC     H1B 4305   6.516   3.866   8.302
  110PC     C32 4306   6.722   3.803   8.311
  110PC     H2A 4307   6.700   3.699   8.290
  110PC     H2B 4308   6.752   3.849   8.217
  110PC     N31 4309   6.855   3.800   8.381
  110PC     C33 4310   6.950   3.708   8.305
  110PC     H3A 4311   6.891   3.618   8.286
  110PC     H3B 4312   7.043   3.693   8.360
  110PC     H3C 4313   6.979   3.764   8.216
  110PC     C34 4314   6.837   3.749   8.516
  110PC     H4A 4315   6.939   3.732   8.551
  110PC     H4B 4316   6.775   3.659   8.516
  110PC     H4C 4317   6.795   3.824   8.583
  110PC     C35 4318   6.908   3.937   8.378
  110PC     H5A 4319   6.852   4.016   8.428
  110PC     H5B 4320   6.930   3.962   8.274
  110PC     H5C 4321   7.002   3.935   8.433
  110PC     O33 4322   6.662   4.250   8.357
  110PC     O34 4323   6.494   4.122   8.225
  110PC     O21 4324   6.627   4.089   7.827
  110PC     C21 4325   6.513   4.048   7.769
  110PC     O22 4326   6.410   4.046   7.833
  111MY    H14T 4327   6.748   3.569   6.403
  111MY    C114 4328   6.817   3.604   6.479
  111MY    H14R 4329   6.800   3.546   6.570
  111MY    H14S 4330   6.920   3.580   6.451
  111MY    C113 4331   6.804   3.755   6.490
  111MY    H13R 4332   6.884   3.778   6.560
  111MY    H13S 4333   6.811   3.800   6.390
  111MY    C112 4334   6.667   3.809   6.548
  111MY    H12R 4335   6.670   3.918   6.555
  111MY    H12S 4336   6.583   3.797   6.478
  111MY    C111 4337   6.621   3.755   6.685
  111MY    H11R 4338   6.578   3.655   6.671
  111MY    H11S 4339   6.705   3.745   6.753
  111MY    C110 4340   6.502   3.826   6.749
  111MY    H10R 4341   6.506   3.934   6.736
  111MY    H10S 4342   6.418   3.790   6.689
  111MY     C19 4343   6.507   3.773   6.897
  111MY     H9R 4344   6.500   3.664   6.897
  111MY     H9S 4345   6.602   3.801   6.943
  111MY     C18 4346   6.396   3.843   6.973
  111MY     H8R 4347   6.423   3.948   6.962
  111MY     H8S 4348   6.301   3.829   6.921
  111MY     C17 4349   6.385   3.805   7.119
  111MY     H7R 4350   6.356   3.700   7.127
  111MY     H7S 4351   6.484   3.817   7.163
  111MY     C16 4352   6.285   3.894   7.199
  111MY     H6R 4353   6.302   4.001   7.186
  111MY     H6S 4354   6.186   3.879   7.157
  111MY     C15 4355   6.287   3.879   7.353
  111MY     H5R 4356   6.198   3.924   7.398
  111MY     H5S 4357   6.281   3.773   7.378
  111MY     C14 4358   6.414   3.935   7.419
  111MY     H4R 4359   6.492   3.869   7.381
  111MY     H4S 4360   6.432   4.040   7.393
  111MY     C13 4361   6.415   3.925   7.572
  111MY     H3R 4362   6.327   3.981   7.605
  111MY     H3S 4363   6.406   3.820   7.599
  111MY     C12 4364   6.535   4.002   7.629
  111MY     H2R 4365   6.616   3.929   7.632
  111MY     H2S 4366   6.562   4.089   7.569
  112MY    H14T 4367   3.987   3.407   6.328
  112MY    C114 4368   4.053   3.426   6.242
  112MY    H14R 4369   4.101   3.330   6.224
  112MY    H14S 4370   3.993   3.434   6.151
  112MY    C113 4371   4.149   3.549   6.280
  112MY    H13R 4372   4.217   3.573   6.197
  112MY    H13S 4373   4.099   3.644   6.300
  112MY    C112 4374   4.239   3.505   6.402
  112MY    H12R 4375   4.288   3.414   6.368
  112MY    H12S 4376   4.308   3.588   6.421
  112MY    C111 4377   4.169   3.474   6.540
  112MY    H11R 4378   4.122   3.571   6.561
  112MY    H11S 4379   4.088   3.405   6.516
  112MY    C110 4380   4.266   3.430   6.646
  112MY    H10R 4381   4.324   3.353   6.595
  112MY    H10S 4382   4.325   3.521   6.660
  112MY     C19 4383   4.208   3.383   6.783
  112MY     H9R 4384   4.123   3.315   6.765
  112MY     H9S 4385   4.286   3.334   6.842
  112MY     C18 4386   4.149   3.503   6.866
  112MY     H8R 4387   4.230   3.572   6.891
  112MY     H8S 4388   4.069   3.553   6.813
  112MY     C17 4389   4.084   3.451   6.998
  112MY     H7R 4390   4.005   3.382   6.967
  112MY     H7S 4391   4.161   3.397   7.053
  112MY     C16 4392   4.027   3.563   7.087
  112MY     H6R 4393   4.106   3.633   7.116
  112MY     H6S 4394   3.958   3.618   7.023
  112MY     C15 4395   3.947   3.524   7.210
  112MY     H5R 4396   4.003   3.446   7.262
  112MY     H5S 4397   3.955   3.609   7.278
  112MY     C14 4398   3.795   3.500   7.192
  112MY     H4R 4399   3.745   3.583   7.142
  112MY     H4S 4400   3.783   3.415   7.125
  112MY     C13 4401   3.718   3.477   7.323
  112MY     H3R 4402   3.747   3.377   7.359
  112MY     H3S 4403   3.749   3.549   7.399
  112MY     C12 4404   3.564   3.486   7.309
  112MY     H2R 4405   3.521   3.580   7.274
  112MY     H2S 4406   3.527   3.410   7.240
  113PC     C11 4407   3.500   3.443   7.441
  113PC     O12 4408   3.464   3.522   7.525
  113PC     O11 4409   3.487   3.312   7.454
  113PC      C1 4410   3.435   3.258   7.581
  113PC      HR 4411   3.509   3.283   7.658
  113PC      HS 4412   3.348   3.316   7.612
  113PC      C2 4413   3.413   3.105   7.570
  113PC      HX 4414   3.379   3.069   7.668
  113PC      C3 4415   3.541   3.021   7.551
  113PC      HA 4416   3.503   2.934   7.497
  113PC      HB 4417   3.627   3.069   7.504
  113PC     O31 4418   3.586   2.979   7.684
  113PC     P31 4419   3.706   3.053   7.766
  113PC     O32 4420   3.840   2.977   7.730
  113PC     C31 4421   3.881   2.859   7.801
  113PC     H1A 4422   3.990   2.845   7.801
  113PC     H1B 4423   3.859   2.884   7.905
  113PC     C32 4424   3.795   2.743   7.753
  113PC     H2A 4425   3.689   2.769   7.759
  113PC     H2B 4426   3.820   2.728   7.648
  113PC     N31 4427   3.822   2.614   7.815
  113PC     C33 4428   3.975   2.592   7.832
  113PC     H3A 4429   3.973   2.489   7.868
  113PC     H3B 4430   4.011   2.660   7.910
  113PC     H3C 4431   4.022   2.614   7.736
  113PC     C34 4432   3.771   2.509   7.723
  113PC     H4A 4433   3.841   2.498   7.640
  113PC     H4B 4434   3.677   2.554   7.692
  113PC     H4C 4435   3.754   2.417   7.779
  113PC     C35 4436   3.749   2.611   7.945
  113PC     H5A 4437   3.755   2.709   7.992
  113PC     H5B 4438   3.789   2.544   8.022
  113PC     H5C 4439   3.647   2.585   7.915
  113PC     O33 4440   3.725   3.190   7.717
  113PC     O34 4441   3.677   3.042   7.909
  113PC     O21 4442   3.320   3.080   7.459
  113PC     C21 4443   3.198   3.036   7.494
  113PC     O22 4444   3.162   3.018   7.607
  114MY    H14T 4445   2.014   3.301   6.421
  114MY    C114 4446   2.041   3.210   6.475
  114MY    H14R 4447   1.944   3.185   6.518
  114MY    H14S 4448   2.064   3.128   6.407
  114MY    C113 4449   2.167   3.234   6.569
  114MY    H13R 4450   2.242   3.293   6.516
  114MY    H13S 4451   2.137   3.296   6.653
  114MY    C112 4452   2.223   3.110   6.638
  114MY    H12R 4453   2.139   3.080   6.701
  114MY    H12S 4454   2.238   3.026   6.571
  114MY    C111 4455   2.354   3.128   6.721
  114MY    H11R 4456   2.442   3.145   6.659
  114MY    H11S 4457   2.326   3.214   6.782
  114MY    C110 4458   2.375   2.998   6.808
  114MY    H10R 4459   2.294   2.983   6.880
  114MY    H10S 4460   2.398   2.905   6.755
  114MY     C19 4461   2.502   3.022   6.886
  114MY     H9R 4462   2.592   3.019   6.823
  114MY     H9S 4463   2.496   3.119   6.936
  114MY     C18 4464   2.529   2.915   6.989
  114MY     H8R 4465   2.435   2.882   7.035
  114MY     H8S 4466   2.574   2.829   6.940
  114MY     C17 4467   2.615   2.967   7.108
  114MY     H7R 4468   2.566   3.057   7.146
  114MY     H7S 4469   2.625   2.899   7.194
  114MY     C16 4470   2.762   2.989   7.059
  114MY     H6R 4471   2.803   2.893   7.025
  114MY     H6S 4472   2.762   3.057   6.974
  114MY     C15 4473   2.844   3.047   7.173
  114MY     H5R 4474   2.939   3.091   7.144
  114MY     H5S 4475   2.788   3.129   7.218
  114MY     C14 4476   2.885   2.942   7.278
  114MY     H4R 4477   2.792   2.909   7.325
  114MY     H4S 4478   2.941   2.863   7.227
  114MY     C13 4479   2.960   3.001   7.399
  114MY     H3R 4480   2.911   3.093   7.432
  114MY     H3S 4481   2.952   2.920   7.472
  114MY     C12 4482   3.109   3.024   7.371
  114MY     H2R 4483   3.152   2.941   7.315
  114MY     H2S 4484   3.112   3.113   7.308
  115MY    H14T 4485   1.481   4.107   7.006
  115MY    C114 4486   1.571   4.166   6.991
  115MY    H14R 4487   1.648   4.106   6.941
  115MY    H14S 4488   1.552   4.253   6.928
  115MY    C113 4489   1.627   4.206   7.129
  115MY    H13R 4490   1.717   4.269   7.128
  115MY    H13S 4491   1.548   4.259   7.183
  115MY    C112 4492   1.676   4.082   7.213
  115MY    H12R 4493   1.587   4.031   7.251
  115MY    H12S 4494   1.718   4.008   7.145
  115MY    C111 4495   1.773   4.119   7.324
  115MY    H11R 4496   1.868   4.144   7.275
  115MY    H11S 4497   1.733   4.205   7.379
  115MY    C110 4498   1.790   4.001   7.427
  115MY    H10R 4499   1.696   3.984   7.481
  115MY    H10S 4500   1.793   3.904   7.376
  115MY     C19 4501   1.900   4.031   7.534
  115MY     H9R 4502   1.999   4.009   7.494
  115MY     H9S 4503   1.885   4.138   7.552
  115MY     C18 4504   1.880   3.959   7.668
  115MY     H8R 4505   1.954   3.999   7.738
  115MY     H8S 4506   1.786   3.990   7.715
  115MY     C17 4507   1.908   3.806   7.686
  115MY     H7R 4508   1.919   3.777   7.791
  115MY     H7S 4509   1.819   3.759   7.645
  115MY     C16 4510   2.020   3.742   7.604
  115MY     H6R 4511   1.984   3.746   7.501
  115MY     H6S 4512   2.117   3.792   7.604
  115MY     C15 4513   2.034   3.581   7.631
  115MY     H5R 4514   2.059   3.563   7.736
  115MY     H5S 4515   1.936   3.540   7.604
  115MY     C14 4516   2.152   3.523   7.542
  115MY     H4R 4517   2.147   3.417   7.566
  115MY     H4S 4518   2.133   3.541   7.436
  115MY     C13 4519   2.299   3.566   7.576
  115MY     H3R 4520   2.361   3.488   7.531
  115MY     H3S 4521   2.322   3.659   7.524
  115MY     C12 4522   2.321   3.575   7.726
  115MY     H2R 4523   2.427   3.601   7.732
  115MY     H2S 4524   2.260   3.652   7.773
  116PC     C11 4525   2.307   3.450   7.802
  116PC     O12 4526   2.331   3.339   7.759
  116PC     O11 4527   2.257   3.479   7.929
  116PC      C1 4528   2.232   3.371   8.030
  116PC      HR 4529   2.292   3.281   8.013
  116PC      HS 4530   2.268   3.405   8.127
  116PC      C2 4531   2.086   3.333   8.043
  116PC      HX 4532   2.034   3.429   8.046
  116PC      C3 4533   2.057   3.256   8.172
  116PC      HA 4534   1.966   3.197   8.157
  116PC      HB 4535   2.144   3.195   8.198
  116PC     O31 4536   2.032   3.356   8.283
  116PC     P31 4537   2.147   3.390   8.384
  116PC     O32 4538   2.171   3.540   8.342
  116PC     C31 4539   2.082   3.646   8.363
  116PC     H1A 4540   1.991   3.627   8.306
  116PC     H1B 4541   2.060   3.664   8.469
  116PC     C32 4542   2.147   3.774   8.310
  116PC     H2A 4543   2.176   3.765   8.205
  116PC     H2B 4544   2.074   3.854   8.323
  116PC     N31 4545   2.276   3.830   8.377
  116PC     C33 4546   2.407   3.764   8.349
  116PC     H3A 4547   2.435   3.789   8.247
  116PC     H3B 4548   2.406   3.658   8.373
  116PC     H3C 4549   2.483   3.819   8.406
  116PC     C34 4550   2.253   3.829   8.521
  116PC     H4A 4551   2.155   3.875   8.532
  116PC     H4B 4552   2.335   3.887   8.564
  116PC     H4C 4553   2.258   3.724   8.553
  116PC     C35 4554   2.294   3.973   8.324
  116PC     H5A 4555   2.376   4.022   8.378
  116PC     H5B 4556   2.206   4.037   8.333
  116PC     H5C 4557   2.315   3.952   8.219
  116PC     O33 4558   2.087   3.388   8.518
  116PC     O34 4559   2.265   3.310   8.356
  116PC     O21 4560   2.049   3.256   7.930
  116PC     C21 4561   1.922   3.253   7.882
  116PC     O22 4562   1.832   3.322   7.928
  117MY    H14T 4563   1.880   2.245   6.724
  117MY    C114 4564   1.781   2.290   6.732
  117MY    H14R 4565   1.741   2.312   6.632
  117MY    H14S 4566   1.696   2.230   6.766
  117MY    C113 4567   1.797   2.418   6.823
  117MY    H13R 4568   1.843   2.494   6.760
  117MY    H13S 4569   1.700   2.460   6.849
  117MY    C112 4570   1.877   2.359   6.943
  117MY    H12R 4571   1.836   2.270   6.990
  117MY    H12S 4572   1.975   2.328   6.906
  117MY    C111 4573   1.902   2.461   7.061
  117MY    H11R 4574   1.934   2.411   7.152
  117MY    H11S 4575   1.996   2.510   7.034
  117MY    C110 4576   1.794   2.569   7.099
  117MY    H10R 4577   1.782   2.640   7.017
  117MY    H10S 4578   1.693   2.531   7.120
  117MY     C19 4579   1.843   2.667   7.213
  117MY     H9R 4580   1.851   2.604   7.301
  117MY     H9S 4581   1.944   2.697   7.182
  117MY     C18 4582   1.761   2.792   7.241
  117MY     H8R 4583   1.745   2.853   7.152
  117MY     H8S 4584   1.660   2.760   7.268
  117MY     C17 4585   1.821   2.881   7.349
  117MY     H7R 4586   1.817   2.824   7.442
  117MY     H7S 4587   1.924   2.916   7.337
  117MY     C16 4588   1.725   2.998   7.372
  117MY     H6R 4589   1.730   3.071   7.291
  117MY     H6S 4590   1.618   2.979   7.372
  117MY     C15 4591   1.740   3.071   7.504
  117MY     H5R 4592   1.661   3.147   7.500
  117MY     H5S 4593   1.725   3.013   7.595
  117MY     C14 4594   1.870   3.149   7.517
  117MY     H4R 4595   1.949   3.074   7.509
  117MY     H4S 4596   1.886   3.225   7.439
  117MY     C13 4597   1.882   3.230   7.641
  117MY     H3R 4598   1.970   3.293   7.625
  117MY     H3S 4599   1.799   3.299   7.656
  117MY     C12 4600   1.901   3.152   7.773
  117MY     H2R 4601   1.809   3.107   7.812
  117MY     H2S 4602   1.979   3.078   7.753
  118MY    H14T 4603   3.946   2.174   5.825
  118MY    C114 4604   3.964   2.277   5.794
  118MY    H14R 4605   4.050   2.293   5.728
  118MY    H14S 4606   3.876   2.309   5.738
  118MY    C113 4607   3.980   2.372   5.909
  118MY    H13R 4608   4.076   2.357   5.959
  118MY    H13S 4609   3.991   2.471   5.865
  118MY    C112 4610   3.881   2.355   6.024
  118MY    H12R 4611   3.778   2.366   5.990
  118MY    H12S 4612   3.896   2.258   6.073
  118MY    C111 4613   3.909   2.450   6.151
  118MY    H11R 4614   4.013   2.435   6.181
  118MY    H11S 4615   3.903   2.554   6.117
  118MY    C110 4616   3.820   2.426   6.274
  118MY    H10R 4617   3.719   2.465   6.259
  118MY    H10S 4618   3.804   2.321   6.297
  118MY     C19 4619   3.871   2.504   6.403
  118MY     H9R 4620   3.898   2.604   6.366
  118MY     H9S 4621   3.791   2.510   6.476
  118MY     C18 4622   3.991   2.463   6.485
  118MY     H8R 4623   3.976   2.364   6.528
  118MY     H8S 4624   4.072   2.451   6.413
  118MY     C17 4625   4.033   2.565   6.588
  118MY     H7R 4626   4.040   2.669   6.553
  118MY     H7S 4627   3.960   2.569   6.669
  118MY     C16 4628   4.176   2.528   6.647
  118MY     H6R 4629   4.160   2.444   6.715
  118MY     H6S 4630   4.254   2.507   6.573
  118MY     C15 4631   4.233   2.650   6.717
  118MY     H5R 4632   4.228   2.736   6.649
  118MY     H5S 4633   4.164   2.664   6.800
  118MY     C14 4634   4.376   2.644   6.780
  118MY     H4R 4635   4.457   2.632   6.708
  118MY     H4S 4636   4.388   2.743   6.822
  118MY     C13 4637   4.385   2.542   6.893
  118MY     H3R 4638   4.300   2.563   6.958
  118MY     H3S 4639   4.381   2.438   6.859
  118MY     C12 4640   4.513   2.567   6.975
  118MY     H2R 4641   4.597   2.575   6.905
  118MY     H2S 4642   4.504   2.664   7.026
  119PC     C11 4643   4.537   2.463   7.088
  119PC     O12 4644   4.455   2.388   7.140
  119PC     O11 4645   4.664   2.461   7.124
  119PC      C1 4646   4.716   2.344   7.198
  119PC      HR 4647   4.705   2.358   7.306
  119PC      HS 4648   4.662   2.251   7.176
  119PC      C2 4649   4.865   2.309   7.164
  119PC      HX 4650   4.889   2.211   7.206
  119PC      C3 4651   4.962   2.423   7.213
  119PC      HA 4652   5.066   2.393   7.194
  119PC      HB 4653   4.937   2.520   7.170
  119PC     O31 4654   4.946   2.434   7.359
  119PC     P31 4655   5.007   2.336   7.470
  119PC     O32 4656   4.894   2.230   7.498
  119PC     C31 4657   4.784   2.257   7.586
  119PC     H1A 4658   4.824   2.300   7.678
  119PC     H1B 4659   4.726   2.334   7.534
  119PC     C32 4660   4.696   2.141   7.608
  119PC     H2A 4661   4.649   2.120   7.512
  119PC     H2B 4662   4.755   2.055   7.641
  119PC     N31 4663   4.584   2.145   7.701
  119PC     C33 4664   4.489   2.248   7.654
  119PC     H3A 4665   4.531   2.349   7.659
  119PC     H3B 4666   4.401   2.248   7.718
  119PC     H3C 4667   4.452   2.218   7.556
  119PC     C34 4668   4.632   2.185   7.840
  119PC     H4A 4669   4.544   2.205   7.901
  119PC     H4B 4670   4.675   2.285   7.834
  119PC     H4C 4671   4.700   2.110   7.882
  119PC     C35 4672   4.522   2.012   7.703
  119PC     H5A 4673   4.429   2.014   7.760
  119PC     H5B 4674   4.594   1.938   7.738
  119PC     H5C 4675   4.508   1.986   7.598
  119PC     O33 4676   5.119   2.255   7.408
  119PC     O34 4677   5.024   2.421   7.588
  119PC     O21 4678   4.870   2.299   7.017
  119PC     C21 4679   4.846   2.182   6.956
  119PC     O22 4680   4.804   2.084   7.013
  120MY    H14T 4681   5.185   2.574   6.010
  120MY    C114 4682   5.096   2.592   6.070
  120MY    H14R 4683   5.009   2.572   6.007
  120MY    H14S 4684   5.092   2.509   6.141
  120MY    C113 4685   5.095   2.729   6.141
  120MY    H13R 4686   5.189   2.745   6.194
  120MY    H13S 4687   5.088   2.811   6.069
  120MY    C112 4688   4.985   2.744   6.250
  120MY    H12R 4689   4.993   2.650   6.306
  120MY    H12S 4690   5.013   2.825   6.318
  120MY    C111 4691   4.845   2.771   6.186
  120MY    H11R 4692   4.869   2.842   6.107
  120MY    H11S 4693   4.805   2.683   6.137
  120MY    C110 4694   4.737   2.830   6.281
  120MY    H10R 4695   4.763   2.933   6.308
  120MY    H10S 4696   4.644   2.844   6.225
  120MY     C19 4697   4.713   2.758   6.407
  120MY     H9R 4698   4.777   2.794   6.487
  120MY     H9S 4699   4.613   2.794   6.435
  120MY     C18 4700   4.720   2.609   6.391
  120MY     H8R 4701   4.670   2.569   6.302
  120MY     H8S 4702   4.823   2.577   6.404
  120MY     C17 4703   4.655   2.541   6.511
  120MY     H7R 4704   4.704   2.575   6.603
  120MY     H7S 4705   4.549   2.566   6.510
  120MY     C16 4706   4.663   2.388   6.499
  120MY     H6R 4707   4.610   2.372   6.406
  120MY     H6S 4708   4.768   2.361   6.486
  120MY     C15 4709   4.585   2.315   6.611
  120MY     H5R 4710   4.500   2.375   6.646
  120MY     H5S 4711   4.552   2.217   6.576
  120MY     C14 4712   4.669   2.300   6.732
  120MY     H4R 4713   4.720   2.395   6.751
  120MY     H4S 4714   4.611   2.280   6.822
  120MY     C13 4715   4.770   2.184   6.711
  120MY     H3R 4716   4.712   2.091   6.721
  120MY     H3S 4717   4.819   2.196   6.614
  120MY     C12 4718   4.884   2.182   6.813
  120MY     H2R 4719   4.931   2.084   6.798
  120MY     H2S 4720   4.955   2.262   6.793
  121MY    H14T 4721   4.774   5.521   6.430
  121MY    C114 4722   4.857   5.462   6.393
  121MY    H14R 4723   4.836   5.358   6.419
  121MY    H14S 4724   4.863   5.461   6.284
  121MY    C113 4725   4.989   5.500   6.459
  121MY    H13R 4726   5.060   5.431   6.415
  121MY    H13S 4727   5.015   5.603   6.434
  121MY    C112 4728   4.972   5.488   6.613
  121MY    H12R 4729   4.883   5.544   6.643
  121MY    H12S 4730   4.945   5.384   6.637
  121MY    C111 4731   5.097   5.526   6.687
  121MY    H11R 4732   5.175   5.456   6.659
  121MY    H11S 4733   5.123   5.625   6.650
  121MY    C110 4734   5.090   5.527   6.836
  121MY    H10R 4735   5.040   5.440   6.880
  121MY    H10S 4736   5.193   5.531   6.873
  121MY     C19 4737   5.037   5.672   6.889
  121MY     H9R 4738   5.118   5.744   6.877
  121MY     H9S 4739   4.955   5.710   6.829
  121MY     C18 4740   5.000   5.677   7.038
  121MY     H8R 4741   4.905   5.622   7.033
  121MY     H8S 4742   5.068   5.624   7.104
  121MY     C17 4743   4.977   5.822   7.087
  121MY     H7R 4744   5.062   5.877   7.046
  121MY     H7S 4745   4.884   5.858   7.042
  121MY     C16 4746   4.981   5.842   7.235
  121MY     H6R 4747   4.884   5.819   7.280
  121MY     H6S 4748   5.059   5.783   7.283
  121MY     C15 4749   4.999   5.999   7.265
  121MY     H5R 4750   5.094   6.028   7.220
  121MY     H5S 4751   4.926   6.059   7.211
  121MY     C14 4752   5.006   6.030   7.415
  121MY     H4R 4753   5.072   5.958   7.465
  121MY     H4S 4754   5.053   6.126   7.436
  121MY     C13 4755   4.869   6.036   7.490
  121MY     H3R 4756   4.805   6.113   7.446
  121MY     H3S 4757   4.816   5.944   7.469
  121MY     C12 4758   4.884   6.065   7.642
  121MY     H2R 4759   4.944   5.995   7.699
  121MY     H2S 4760   4.948   6.153   7.657
  122PC     C11 4761   4.755   6.061   7.722
  122PC     O12 4762   4.645   6.090   7.674
  122PC     O11 4763   4.775   6.006   7.837
  122PC      C1 4764   4.653   5.972   7.916
  122PC      HR 4765   4.684   6.002   8.016
  122PC      HS 4766   4.573   6.036   7.880
  122PC      C2 4767   4.632   5.819   7.901
  122PC      HX 4768   4.528   5.802   7.930
  122PC      C3 4769   4.734   5.732   7.983
  122PC      HA 4770   4.730   5.627   7.952
  122PC      HB 4771   4.832   5.778   7.969
  122PC     O31 4772   4.697   5.742   8.122
  122PC     P31 4773   4.594   5.640   8.193
  122PC     O32 4774   4.694   5.532   8.255
  122PC     C31 4775   4.778   5.566   8.367
  122PC     H1A 4776   4.845   5.650   8.347
  122PC     H1B 4777   4.719   5.593   8.455
  122PC     C32 4778   4.866   5.443   8.400
  122PC     H2A 4779   4.915   5.454   8.496
  122PC     H2B 4780   4.807   5.352   8.389
  122PC     N31 4781   4.984   5.418   8.314
  122PC     C33 4782   4.943   5.415   8.167
  122PC     H3A 4783   4.869   5.343   8.133
  122PC     H3B 4784   5.044   5.391   8.132
  122PC     H3C 4785   4.925   5.519   8.138
  122PC     C34 4786   5.045   5.283   8.349
  122PC     H4A 4787   5.117   5.253   8.272
  122PC     H4B 4788   4.957   5.218   8.345
  122PC     H4C 4789   5.092   5.291   8.447
  122PC     C35 4790   5.079   5.529   8.330
  122PC     H5A 4791   5.047   5.609   8.263
  122PC     H5B 4792   5.182   5.496   8.312
  122PC     H5C 4793   5.079   5.573   8.429
  122PC     O33 4794   4.515   5.695   8.306
  122PC     O34 4795   4.525   5.567   8.088
  122PC     O21 4796   4.654   5.782   7.763
  122PC     C21 4797   4.579   5.689   7.706
  122PC     O22 4798   4.488   5.624   7.754
  123MY    H14T 4799   4.204   5.170   6.443
  123MY    C114 4800   4.267   5.224   6.513
  123MY    H14R 4801   4.208   5.227   6.605
  123MY    H14S 4802   4.357   5.162   6.522
  123MY    C113 4803   4.312   5.374   6.481
  123MY    H13R 4804   4.376   5.366   6.392
  123MY    H13S 4805   4.230   5.439   6.448
  123MY    C112 4806   4.388   5.449   6.595
  123MY    H12R 4807   4.323   5.488   6.674
  123MY    H12S 4808   4.462   5.383   6.642
  123MY    C111 4809   4.464   5.570   6.537
  123MY    H11R 4810   4.505   5.560   6.436
  123MY    H11S 4811   4.388   5.648   6.523
  123MY    C110 4812   4.574   5.634   6.625
  123MY    H10R 4813   4.648   5.555   6.644
  123MY    H10S 4814   4.611   5.714   6.560
  123MY     C19 4815   4.544   5.700   6.757
  123MY     H9R 4816   4.605   5.790   6.769
  123MY     H9S 4817   4.443   5.739   6.742
  123MY     C18 4818   4.557   5.602   6.872
  123MY     H8R 4819   4.501   5.511   6.849
  123MY     H8S 4820   4.663   5.577   6.880
  123MY     C17 4821   4.505   5.655   7.009
  123MY     H7R 4822   4.400   5.678   6.992
  123MY     H7S 4823   4.514   5.575   7.083
  123MY     C16 4824   4.572   5.783   7.067
  123MY     H6R 4825   4.680   5.774   7.049
  123MY     H6S 4826   4.538   5.867   7.006
  123MY     C15 4827   4.531   5.811   7.214
  123MY     H5R 4828   4.579   5.907   7.236
  123MY     H5S 4829   4.424   5.832   7.218
  123MY     C14 4830   4.570   5.715   7.327
  123MY     H4R 4831   4.529   5.615   7.314
  123MY     H4S 4832   4.678   5.709   7.315
  123MY     C13 4833   4.539   5.746   7.477
  123MY     H3R 4834   4.577   5.846   7.498
  123MY     H3S 4835   4.434   5.735   7.504
  123MY     C12 4836   4.628   5.662   7.567
  123MY     H2R 4837   4.620   5.554   7.555
  123MY     H2S 4838   4.733   5.691   7.558
  124MY    H14T 4839   0.859   4.184   6.546
  124MY    C114 4840   0.757   4.152   6.524
  124MY    H14R 4841   0.708   4.218   6.452
  124MY    H14S 4842   0.752   4.054   6.474
  124MY    C113 4843   0.672   4.146   6.654
  124MY    H13R 4844   0.679   4.240   6.710
  124MY    H13S 4845   0.565   4.139   6.635
  124MY    C112 4846   0.720   4.035   6.753
  124MY    H12R 4847   0.731   3.938   6.704
  124MY    H12S 4848   0.816   4.069   6.794
  124MY    C111 4849   0.616   4.018   6.867
  124MY    H11R 4850   0.610   4.111   6.923
  124MY    H11S 4851   0.518   3.996   6.825
  124MY    C110 4852   0.661   3.899   6.961
  124MY    H10R 4853   0.578   3.884   7.030
  124MY    H10S 4854   0.664   3.806   6.904
  124MY     C19 4855   0.799   3.906   7.036
  124MY     H9R 4856   0.805   3.817   7.098
  124MY     H9S 4857   0.882   3.898   6.966
  124MY     C18 4858   0.816   4.026   7.127
  124MY     H8R 4859   0.912   4.015   7.178
  124MY     H8S 4860   0.820   4.110   7.057
  124MY     C17 4861   0.684   4.042   7.213
  124MY     H7R 4862   0.684   4.134   7.272
  124MY     H7S 4863   0.603   4.067   7.144
  124MY     C16 4864   0.650   3.919   7.301
  124MY     H6R 4865   0.549   3.931   7.342
  124MY     H6S 4866   0.632   3.829   7.242
  124MY     C15 4867   0.755   3.884   7.414
  124MY     H5R 4868   0.715   3.802   7.473
  124MY     H5S 4869   0.849   3.852   7.368
  124MY     C14 4870   0.789   4.001   7.507
  124MY     H4R 4871   0.870   3.961   7.568
  124MY     H4S 4872   0.837   4.080   7.448
  124MY     C13 4873   0.669   4.046   7.594
  124MY     H3R 4874   0.578   4.065   7.538
  124MY     H3S 4875   0.644   3.968   7.667
  124MY     C12 4876   0.702   4.182   7.662
  124MY     H2R 4877   0.728   4.262   7.592
  124MY     H2S 4878   0.606   4.211   7.703
  125PC     C11 4879   0.802   4.169   7.781
  125PC     O12 4880   0.773   4.147   7.899
  125PC     O11 4881   0.933   4.173   7.742
  125PC      C1 4882   1.032   4.191   7.850
  125PC      HR 4883   1.120   4.238   7.805
  125PC      HS 4884   0.993   4.269   7.916
  125PC      C2 4885   1.067   4.065   7.933
  125PC      HX 4886   0.978   4.032   7.987
  125PC      C3 4887   1.171   4.093   8.044
  125PC      HA 4888   1.192   4.001   8.100
  125PC      HB 4889   1.265   4.128   8.002
  125PC     O31 4890   1.119   4.184   8.148
  125PC     P31 4891   1.028   4.128   8.267
  125PC     O32 4892   0.880   4.155   8.213
  125PC     C31 4893   0.808   4.275   8.229
  125PC     H1A 4894   0.704   4.243   8.227
  125PC     H1B 4895   0.820   4.311   8.332
  125PC     C32 4896   0.834   4.384   8.127
  125PC     H2A 4897   0.940   4.395   8.106
  125PC     H2B 4898   0.788   4.360   8.030
  125PC     N31 4899   0.788   4.529   8.162
  125PC     C33 4900   0.827   4.624   8.056
  125PC     H3A 4901   0.788   4.723   8.078
  125PC     H3B 4902   0.789   4.587   7.960
  125PC     H3C 4903   0.935   4.625   8.046
  125PC     C34 4904   0.838   4.575   8.292
  125PC     H4A 4905   0.946   4.588   8.294
  125PC     H4B 4906   0.815   4.508   8.375
  125PC     H4C 4907   0.781   4.666   8.308
  125PC     C35 4908   0.642   4.534   8.169
  125PC     H5A 4909   0.595   4.500   8.077
  125PC     H5B 4910   0.615   4.639   8.185
  125PC     H5C 4911   0.600   4.473   8.249
  125PC     O33 4912   1.052   3.979   8.278
  125PC     O34 4913   1.050   4.217   8.386
  125PC     O21 4914   1.118   3.952   7.858
  125PC     C21 4915   1.033   3.850   7.833
  125PC     O22 4916   0.909   3.847   7.857
  126MY    H14T 4917   0.958   3.774   6.343
  126MY    C114 4918   0.930   3.783   6.448
  126MY    H14R 4919   0.942   3.879   6.499
  126MY    H14S 4920   0.829   3.745   6.461
  126MY    C113 4921   1.015   3.676   6.519
  126MY    H13R 4922   0.998   3.582   6.467
  126MY    H13S 4923   1.118   3.709   6.508
  126MY    C112 4924   0.986   3.657   6.668
  126MY    H12R 4925   1.010   3.747   6.726
  126MY    H12S 4926   0.881   3.644   6.693
  126MY    C111 4927   1.073   3.546   6.715
  126MY    H11R 4928   1.043   3.460   6.653
  126MY    H11S 4929   1.176   3.561   6.681
  126MY    C110 4930   1.062   3.505   6.861
  126MY    H10R 4931   0.960   3.511   6.899
  126MY    H10S 4932   1.096   3.401   6.863
  126MY     C19 4933   1.147   3.603   6.951
  126MY     H9R 4934   1.251   3.583   6.922
  126MY     H9S 4935   1.131   3.708   6.924
  126MY     C18 4936   1.129   3.604   7.100
  126MY     H8R 4937   1.025   3.578   7.122
  126MY     H8S 4938   1.188   3.521   7.139
  126MY     C17 4939   1.165   3.741   7.162
  126MY     H7R 4940   1.265   3.757   7.121
  126MY     H7S 4941   1.096   3.811   7.115
  126MY     C16 4942   1.143   3.723   7.314
  126MY     H6R 4943   1.038   3.696   7.320
  126MY     H6S 4944   1.203   3.635   7.340
  126MY     C15 4945   1.182   3.849   7.402
  126MY     H5R 4946   1.291   3.845   7.415
  126MY     H5S 4947   1.159   3.942   7.350
  126MY     C14 4948   1.106   3.846   7.535
  126MY     H4R 4949   1.102   3.949   7.571
  126MY     H4S 4950   1.003   3.821   7.507
  126MY     C13 4951   1.159   3.745   7.633
  126MY     H3R 4952   1.170   3.652   7.577
  126MY     H3S 4953   1.262   3.762   7.664
  126MY     C12 4954   1.091   3.726   7.772
  126MY     H2R 4955   1.008   3.655   7.766
  126MY     H2S 4956   1.164   3.687   7.844
  127MY    H14T 4957   4.987   0.191   6.492
  127MY    C114 4958   4.908   0.242   6.437
  127MY    H14R 4959   4.936   0.254   6.332
  127MY    H14S 4960   4.819   0.180   6.453
  127MY    C113 4961   4.886   0.369   6.511
  127MY    H13R 4962   4.969   0.434   6.481
  127MY    H13S 4963   4.793   0.415   6.477
  127MY    C112 4964   4.877   0.344   6.665
  127MY    H12R 4965   4.784   0.295   6.695
  127MY    H12S 4966   4.963   0.282   6.692
  127MY    C111 4967   4.903   0.467   6.744
  127MY    H11R 4968   5.001   0.509   6.720
  127MY    H11S 4969   4.822   0.536   6.718
  127MY    C110 4970   4.905   0.439   6.893
  127MY    H10R 4971   4.815   0.382   6.918
  127MY    H10S 4972   4.995   0.386   6.925
  127MY     C19 4973   4.897   0.565   6.984
  127MY     H9R 4974   4.813   0.631   6.957
  127MY     H9S 4975   4.865   0.537   7.084
  127MY     C18 4976   5.030   0.647   7.005
  127MY     H8R 4977   5.100   0.580   7.055
  127MY     H8S 4978   5.070   0.662   6.905
  127MY     C17 4979   5.009   0.782   7.076
  127MY     H7R 4980   5.095   0.849   7.080
  127MY     H7S 4981   4.937   0.839   7.017
  127MY     C16 4982   4.950   0.776   7.217
  127MY     H6R 4983   4.857   0.721   7.204
  127MY     H6S 4984   5.022   0.707   7.264
  127MY     C15 4985   4.918   0.910   7.281
  127MY     H5R 4986   5.012   0.967   7.276
  127MY     H5S 4987   4.863   0.967   7.206
  127MY     C14 4988   4.857   0.914   7.428
  127MY     H4R 4989   4.935   0.886   7.499
  127MY     H4S 4990   4.826   1.017   7.450
  127MY     C13 4991   4.724   0.827   7.441
  127MY     H3R 4992   4.643   0.868   7.381
  127MY     H3S 4993   4.735   0.721   7.414
  127MY     C12 4994   4.671   0.827   7.585
  127MY     H2R 4995   4.744   0.776   7.647
  127MY     H2S 4996   4.633   0.924   7.617
  128PC     C11 4997   4.555   0.737   7.603
  128PC     O12 4998   4.556   0.616   7.588
  128PC     O11 4999   4.444   0.793   7.641
  128PC      C1 5000   4.327   0.704   7.659
  128PC      HR 5001   4.287   0.676   7.561
  128PC      HS 5002   4.352   0.612   7.712
  128PC      C2 5003   4.215   0.774   7.746
  128PC      HX 5004   4.267   0.812   7.834
  128PC      C3 5005   4.104   0.677   7.790
  128PC      HA 5006   4.031   0.724   7.856
  128PC      HB 5007   4.064   0.633   7.698
  128PC     O31 5008   4.172   0.570   7.857
  128PC     P31 5009   4.192   0.585   8.020
  128PC     O32 5010   4.060   0.516   8.067
  128PC     C31 5011   3.943   0.584   8.100
  128PC     H1A 5012   3.957   0.676   8.157
  128PC     H1B 5013   3.889   0.615   8.011
  128PC     C32 5014   3.855   0.482   8.175
  128PC     H2A 5015   3.832   0.398   8.110
  128PC     H2B 5016   3.916   0.455   8.261
  128PC     N31 5017   3.720   0.525   8.224
  128PC     C33 5018   3.720   0.650   8.300
  128PC     H3A 5019   3.763   0.727   8.236
  128PC     H3B 5020   3.778   0.622   8.388
  128PC     H3C 5021   3.614   0.669   8.322
  128PC     C34 5022   3.654   0.416   8.300
  128PC     H4A 5023   3.648   0.325   8.241
  128PC     H4B 5024   3.556   0.450   8.334
  128PC     H4C 5025   3.716   0.409   8.390
  128PC     C35 5026   3.638   0.557   8.111
  128PC     H5A 5027   3.692   0.617   8.038
  128PC     H5B 5028   3.552   0.613   8.147
  128PC     H5C 5029   3.599   0.463   8.071
  128PC     O33 5030   4.311   0.500   8.047
  128PC     O34 5031   4.193   0.726   8.058
  128PC     O21 5032   4.154   0.889   7.678
  128PC     C21 5033   4.132   0.999   7.749
  128PC     O22 5034   4.156   1.016   7.867
  129MY    H14T 5035   4.665   1.417   6.739
  129MY    C114 5036   4.714   1.354   6.664
  129MY    H14R 5037   4.645   1.350   6.579
  129MY    H14S 5038   4.806   1.399   6.628
  129MY    C113 5039   4.720   1.216   6.724
  129MY    H13R 5040   4.626   1.161   6.725
  129MY    H13S 5041   4.792   1.154   6.671
  129MY    C112 5042   4.774   1.218   6.875
  129MY    H12R 5043   4.870   1.270   6.877
  129MY    H12S 5044   4.699   1.268   6.936
  129MY    C111 5045   4.799   1.075   6.929
  129MY    H11R 5046   4.859   1.013   6.862
  129MY    H11S 5047   4.865   1.094   7.014
  129MY    C110 5048   4.681   0.981   6.957
  129MY    H10R 5049   4.622   0.956   6.869
  129MY    H10S 5050   4.719   0.888   7.001
  129MY     C19 5051   4.575   1.033   7.055
  129MY     H9R 5052   4.634   1.063   7.142
  129MY     H9S 5053   4.537   1.125   7.010
  129MY     C18 5054   4.461   0.939   7.103
  129MY     H8R 5055   4.420   0.872   7.027
  129MY     H8S 5056   4.505   0.864   7.170
  129MY     C17 5057   4.346   1.015   7.162
  129MY     H7R 5058   4.348   1.114   7.114
  129MY     H7S 5059   4.251   0.964   7.143
  129MY     C16 5060   4.369   1.046   7.315
  129MY     H6R 5061   4.395   0.961   7.377
  129MY     H6S 5062   4.462   1.102   7.319
  129MY     C15 5063   4.257   1.119   7.391
  129MY     H5R 5064   4.217   1.206   7.338
  129MY     H5S 5065   4.175   1.048   7.397
  129MY     C14 5066   4.308   1.154   7.535
  129MY     H4R 5067   4.334   1.052   7.566
  129MY     H4S 5068   4.397   1.217   7.543
  129MY     C13 5069   4.198   1.215   7.627
  129MY     H3R 5070   4.235   1.246   7.725
  129MY     H3S 5071   4.144   1.295   7.575
  129MY     C12 5072   4.086   1.116   7.658
  129MY     H2R 5073   4.014   1.170   7.719
  129MY     H2S 5074   4.037   1.079   7.567
  130MY    H14T 5075   2.222   0.091   6.319
  130MY    C114 5076   2.271   0.121   6.412
  130MY    H14R 5077   2.299   0.028   6.461
  130MY    H14S 5078   2.361   0.180   6.398
  130MY    C113 5079   2.161   0.186   6.506
  130MY    H13R 5080   2.140   0.285   6.465
  130MY    H13S 5081   2.068   0.128   6.506
  130MY    C112 5082   2.208   0.202   6.646
  130MY    H12R 5083   2.220   0.099   6.681
  130MY    H12S 5084   2.303   0.256   6.648
  130MY    C111 5085   2.107   0.262   6.747
  130MY    H11R 5086   2.065   0.358   6.717
  130MY    H11S 5087   2.024   0.192   6.752
  130MY    C110 5088   2.152   0.285   6.892
  130MY    H10R 5089   2.194   0.191   6.929
  130MY    H10S 5090   2.233   0.357   6.878
  130MY     C19 5091   2.052   0.335   6.994
  130MY     H9R 5092   1.998   0.253   7.042
  130MY     H9S 5093   2.107   0.393   7.068
  130MY     C18 5094   1.942   0.425   6.930
  130MY     H8R 5095   1.995   0.514   6.895
  130MY     H8S 5096   1.895   0.372   6.847
  130MY     C17 5097   1.836   0.477   7.032
  130MY     H7R 5098   1.762   0.541   6.983
  130MY     H7S 5099   1.799   0.382   7.069
  130MY     C16 5100   1.899   0.564   7.149
  130MY     H6R 5101   1.983   0.513   7.197
  130MY     H6S 5102   1.923   0.662   7.106
  130MY     C15 5103   1.812   0.593   7.270
  130MY     H5R 5104   1.877   0.626   7.352
  130MY     H5S 5105   1.745   0.676   7.247
  130MY     C14 5106   1.735   0.476   7.332
  130MY     H4R 5107   1.685   0.501   7.426
  130MY     H4S 5108   1.662   0.434   7.263
  130MY     C13 5109   1.825   0.357   7.374
  130MY     H3R 5110   1.876   0.309   7.291
  130MY     H3S 5111   1.906   0.387   7.442
  130MY     C12 5112   1.740   0.256   7.449
  130MY     H2R 5113   1.718   0.286   7.552
  130MY     H2S 5114   1.643   0.245   7.400
  131PC     C11 5115   1.816   0.123   7.460
  131PC     O12 5116   1.780   0.021   7.413
  131PC     O11 5117   1.923   0.128   7.537
  131PC      C1 5118   1.999   0.008   7.572
  131PC      HR 5119   1.965  -0.031   7.668
  131PC      HS 5120   1.995  -0.063   7.489
  131PC      C2 5121   2.152   0.043   7.592
  131PC      HX 5122   2.199  -0.053   7.614
  131PC      C3 5123   2.167   0.137   7.706
  131PC      HA 5124   2.274   0.149   7.725
  131PC      HB 5125   2.126   0.236   7.689
  131PC     O31 5126   2.114   0.082   7.833
  131PC     P31 5127   2.004   0.166   7.922
  131PC     O32 5128   1.867   0.148   7.846
  131PC     C31 5129   1.777   0.042   7.866
  131PC     H1A 5130   1.737   0.002   7.773
  131PC     H1B 5131   1.823  -0.036   7.927
  131PC     C32 5132   1.659   0.088   7.953
  131PC     H2A 5133   1.703   0.121   8.046
  131PC     H2B 5134   1.613   0.178   7.912
  131PC     N31 5135   1.552  -0.024   7.980
  131PC     C33 5136   1.605  -0.152   8.029
  131PC     H3A 5137   1.517  -0.207   8.062
  131PC     H3B 5138   1.677  -0.123   8.107
  131PC     H3C 5139   1.654  -0.212   7.953
  131PC     C34 5140   1.471  -0.040   7.854
  131PC     H4A 5141   1.372  -0.083   7.873
  131PC     H4B 5142   1.538  -0.098   7.791
  131PC     H4C 5143   1.463   0.060   7.810
  131PC     C35 5144   1.458   0.027   8.083
  131PC     H5A 5145   1.366  -0.031   8.095
  131PC     H5B 5146   1.428   0.128   8.053
  131PC     H5C 5147   1.512   0.028   8.178
  131PC     O33 5148   1.988   0.093   8.050
  131PC     O34 5149   2.032   0.309   7.932
  131PC     O21 5150   2.206   0.094   7.472
  131PC     C21 5151   2.245   0.019   7.367
  131PC     O22 5152   2.227  -0.101   7.352
  132MY    H14T 5153   3.079   0.442   6.146
  132MY    C114 5154   3.122   0.472   6.242
  132MY    H14R 5155   3.228   0.482   6.217
  132MY    H14S 5156   3.089   0.574   6.261
  132MY    C113 5157   3.089   0.362   6.354
  132MY    H13R 5158   3.168   0.288   6.344
  132MY    H13S 5159   3.094   0.415   6.449
  132MY    C112 5160   2.953   0.295   6.324
  132MY    H12R 5161   2.874   0.371   6.321
  132MY    H12S 5162   2.953   0.249   6.225
  132MY    C111 5163   2.907   0.191   6.423
  132MY    H11R 5164   2.807   0.155   6.396
  132MY    H11S 5165   2.976   0.108   6.410
  132MY    C110 5166   2.905   0.228   6.569
  132MY    H10R 5167   2.998   0.277   6.598
  132MY    H10S 5168   2.827   0.304   6.573
  132MY     C19 5169   2.868   0.106   6.660
  132MY     H9R 5170   2.940   0.025   6.650
  132MY     H9S 5171   2.869   0.125   6.767
  132MY     C18 5172   2.731   0.048   6.613
  132MY     H8R 5173   2.674   0.125   6.560
  132MY     H8S 5174   2.758  -0.019   6.532
  132MY     C17 5175   2.645  -0.030   6.710
  132MY     H7R 5176   2.560  -0.071   6.655
  132MY     H7S 5177   2.712  -0.113   6.736
  132MY     C16 5178   2.607   0.057   6.836
  132MY     H6R 5179   2.703   0.074   6.885
  132MY     H6S 5180   2.555   0.148   6.806
  132MY     C15 5181   2.524  -0.009   6.945
  132MY     H5R 5182   2.464  -0.089   6.902
  132MY     H5S 5183   2.601  -0.061   7.002
  132MY     C14 5184   2.446   0.085   7.028
  132MY     H4R 5185   2.514   0.165   7.059
  132MY     H4S 5186   2.379   0.138   6.960
  132MY     C13 5187   2.373   0.018   7.146
  132MY     H3R 5188   2.300  -0.049   7.101
  132MY     H3S 5189   2.443  -0.045   7.203
  132MY     C12 5190   2.309   0.098   7.255
  132MY     H2R 5191   2.390   0.161   7.291
  132MY     H2S 5192   2.230   0.164   7.218
  133MY    H14T 5193   4.117   5.814   6.184
  133MY    C114 5194   4.067   5.719   6.202
  133MY    H14R 5195   3.968   5.721   6.158
  133MY    H14S 5196   4.131   5.650   6.145
  133MY    C113 5197   4.081   5.670   6.344
  133MY    H13R 5198   4.030   5.574   6.353
  133MY    H13S 5199   4.186   5.657   6.370
  133MY    C112 5200   4.029   5.768   6.453
  133MY    H12R 5201   4.111   5.815   6.506
  133MY    H12S 5202   3.984   5.848   6.394
  133MY    C111 5203   3.933   5.688   6.545
  133MY    H11R 5204   3.884   5.763   6.607
  133MY    H11S 5205   3.849   5.646   6.488
  133MY    C110 5206   4.001   5.583   6.634
  133MY    H10R 5207   4.043   5.500   6.576
  133MY    H10S 5208   4.088   5.628   6.683
  133MY     C19 5209   3.909   5.513   6.737
  133MY     H9R 5210   3.853   5.588   6.793
  133MY     H9S 5211   3.832   5.451   6.690
  133MY     C18 5212   3.995   5.419   6.817
  133MY     H8R 5213   3.923   5.360   6.875
  133MY     H8S 5214   4.049   5.355   6.748
  133MY     C17 5215   4.091   5.479   6.925
  133MY     H7R 5216   4.089   5.401   7.002
  133MY     H7S 5217   4.193   5.499   6.891
  133MY     C16 5218   4.033   5.598   6.999
  133MY     H6R 5219   4.018   5.676   6.924
  133MY     H6S 5220   3.936   5.562   7.035
  133MY     C15 5221   4.119   5.643   7.120
  133MY     H5R 5222   4.151   5.551   7.170
  133MY     H5S 5223   4.203   5.703   7.086
  133MY     C14 5224   4.030   5.724   7.214
  133MY     H4R 5225   3.993   5.814   7.165
  133MY     H4S 5226   3.936   5.674   7.237
  133MY     C13 5227   4.101   5.758   7.348
  133MY     H3R 5228   4.172   5.677   7.365
  133MY     H3S 5229   4.148   5.856   7.336
  133MY     C12 5230   4.007   5.783   7.464
  133MY     H2R 5231   4.072   5.838   7.532
  133MY     H2S 5232   3.928   5.847   7.422
  134PC     C11 5233   3.968   5.658   7.531
  134PC     O12 5234   3.990   5.551   7.475
  134PC     O11 5235   3.922   5.677   7.654
  134PC      C1 5236   3.892   5.549   7.733
  134PC      HR 5237   3.822   5.572   7.814
  134PC      HS 5238   3.851   5.463   7.679
  134PC      C2 5239   4.022   5.498   7.808
  134PC      HX 5240   3.997   5.402   7.854
  134PC      C3 5241   4.059   5.600   7.921
  134PC      HA 5242   4.153   5.586   7.974
  134PC      HB 5243   4.057   5.707   7.895
  134PC     O31 5244   3.966   5.565   8.030
  134PC     P31 5245   3.997   5.598   8.183
  134PC     O32 5246   3.926   5.730   8.228
  134PC     C31 5247   3.956   5.857   8.171
  134PC     H1A 5248   4.062   5.882   8.177
  134PC     H1B 5249   3.921   5.857   8.067
  134PC     C32 5250   3.871   5.969   8.246
  134PC     H2A 5251   3.884   6.067   8.200
  134PC     H2B 5252   3.766   5.940   8.248
  134PC     N31 5253   3.892   5.995   8.393
  134PC     C33 5254   4.018   6.080   8.418
  134PC     H3A 5255   4.039   6.070   8.524
  134PC     H3B 5256   3.987   6.178   8.380
  134PC     H3C 5257   4.096   6.033   8.358
  134PC     C34 5258   3.901   5.875   8.481
  134PC     H4A 5259   3.988   5.826   8.437
  134PC     H4B 5260   3.823   5.799   8.477
  134PC     H4C 5261   3.926   5.907   8.582
  134PC     C35 5262   3.770   6.066   8.437
  134PC     H5A 5263   3.689   5.995   8.417
  134PC     H5B 5264   3.765   6.151   8.368
  134PC     H5C 5265   3.783   6.083   8.544
  134PC     O33 5266   3.938   5.488   8.267
  134PC     O34 5267   4.138   5.628   8.200
  134PC     O21 5268   4.131   5.486   7.719
  134PC     C21 5269   4.169   5.371   7.661
  134PC     O22 5270   4.108   5.265   7.675
  135MY    H14T 5271   4.069   4.496   6.664
  135MY    C114 5272   4.042   4.584   6.605
  135MY    H14R 5273   4.089   4.582   6.507
  135MY    H14S 5274   3.933   4.574   6.594
  135MY    C113 5275   4.063   4.711   6.684
  135MY    H13R 5276   4.012   4.795   6.636
  135MY    H13S 5277   4.027   4.701   6.786
  135MY    C112 5278   4.218   4.731   6.685
  135MY    H12R 5279   4.249   4.636   6.729
  135MY    H12S 5280   4.268   4.733   6.588
  135MY    C111 5281   4.280   4.851   6.763
  135MY    H11R 5282   4.389   4.852   6.750
  135MY    H11S 5283   4.258   4.938   6.702
  135MY    C110 5284   4.237   4.854   6.909
  135MY    H10R 5285   4.127   4.851   6.911
  135MY    H10S 5286   4.285   4.770   6.958
  135MY     C19 5287   4.287   4.988   6.971
  135MY     H9R 5288   4.251   4.999   7.073
  135MY     H9S 5289   4.395   4.977   6.978
  135MY     C18 5290   4.264   5.123   6.913
  135MY     H8R 5291   4.292   5.130   6.808
  135MY     H8S 5292   4.159   5.143   6.938
  135MY     C17 5293   4.356   5.220   6.990
  135MY     H7R 5294   4.459   5.187   6.977
  135MY     H7S 5295   4.346   5.320   6.947
  135MY     C16 5296   4.324   5.236   7.138
  135MY     H6R 5297   4.219   5.254   7.163
  135MY     H6S 5298   4.351   5.150   7.201
  135MY     C15 5299   4.395   5.360   7.198
  135MY     H5R 5300   4.497   5.370   7.159
  135MY     H5S 5301   4.346   5.452   7.167
  135MY     C14 5302   4.405   5.348   7.356
  135MY     H4R 5303   4.457   5.257   7.388
  135MY     H4S 5304   4.469   5.430   7.389
  135MY     C13 5305   4.275   5.348   7.431
  135MY     H3R 5306   4.199   5.410   7.384
  135MY     H3S 5307   4.244   5.244   7.421
  135MY     C12 5308   4.297   5.378   7.579
  135MY     H2R 5309   4.367   5.306   7.622
  135MY     H2S 5310   4.329   5.482   7.586
  136MY    H14T 5311   2.695   3.165   6.343
  136MY    C114 5312   2.733   3.064   6.321
  136MY    H14R 5313   2.651   3.009   6.274
  136MY    H14S 5314   2.812   3.063   6.247
  136MY    C113 5315   2.790   3.002   6.454
  136MY    H13R 5316   2.703   2.977   6.515
  136MY    H13S 5317   2.851   2.915   6.427
  136MY    C112 5318   2.877   3.098   6.532
  136MY    H12R 5319   2.934   3.172   6.475
  136MY    H12S 5320   2.812   3.171   6.581
  136MY    C111 5321   2.974   3.035   6.632
  136MY    H11R 5322   2.905   2.988   6.704
  136MY    H11S 5323   3.046   2.967   6.586
  136MY    C110 5324   3.063   3.139   6.700
  136MY    H10R 5325   3.111   3.191   6.617
  136MY    H10S 5326   3.005   3.217   6.750
  136MY     C19 5327   3.167   3.081   6.805
  136MY     H9R 5328   3.119   3.029   6.888
  136MY     H9S 5329   3.219   3.004   6.748
  136MY     C18 5330   3.274   3.177   6.862
  136MY     H8R 5331   3.317   3.234   6.779
  136MY     H8S 5332   3.219   3.248   6.924
  136MY     C17 5333   3.386   3.089   6.926
  136MY     H7R 5334   3.410   2.996   6.876
  136MY     H7S 5335   3.474   3.152   6.912
  136MY     C16 5336   3.361   3.057   7.074
  136MY     H6R 5337   3.336   3.145   7.133
  136MY     H6S 5338   3.283   2.981   7.077
  136MY     C15 5339   3.484   2.987   7.138
  136MY     H5R 5340   3.463   2.959   7.241
  136MY     H5S 5341   3.499   2.894   7.081
  136MY     C14 5342   3.631   3.057   7.138
  136MY     H4R 5343   3.668   3.069   7.036
  136MY     H4S 5344   3.612   3.158   7.175
  136MY     C13 5345   3.727   2.990   7.240
  136MY     H3R 5346   3.670   2.954   7.325
  136MY     H3S 5347   3.782   2.902   7.206
  136MY     C12 5348   3.826   3.097   7.291
  136MY     H2R 5349   3.893   3.138   7.215
  136MY     H2S 5350   3.775   3.184   7.333
  137PC     C11 5351   3.917   3.037   7.398
  137PC     O12 5352   3.907   2.923   7.434
  137PC     O11 5353   4.024   3.116   7.423
  137PC      C1 5354   4.130   3.064   7.510
  137PC      HR 5355   4.097   3.049   7.613
  137PC      HS 5356   4.168   2.968   7.475
  137PC      C2 5357   4.249   3.167   7.510
  137PC      HX 5358   4.286   3.181   7.408
  137PC      C3 5359   4.358   3.110   7.604
  137PC      HA 5360   4.387   3.012   7.566
  137PC      HB 5361   4.442   3.179   7.619
  137PC     O31 5362   4.313   3.077   7.737
  137PC     P31 5363   4.322   3.173   7.869
  137PC     O32 5364   4.195   3.272   7.854
  137PC     C31 5365   4.058   3.220   7.873
  137PC     H1A 5366   4.013   3.182   7.781
  137PC     H1B 5367   4.052   3.151   7.958
  137PC     C32 5368   3.977   3.345   7.926
  137PC     H2A 5369   4.015   3.429   7.867
  137PC     H2B 5370   3.869   3.327   7.924
  137PC     N31 5371   3.992   3.390   8.071
  137PC     C33 5372   3.923   3.299   8.161
  137PC     H3A 5373   3.964   3.198   8.166
  137PC     H3B 5374   3.818   3.304   8.130
  137PC     H3C 5375   3.928   3.346   8.259
  137PC     C34 5376   3.930   3.528   8.084
  137PC     H4A 5377   3.985   3.593   8.015
  137PC     H4B 5378   3.959   3.561   8.183
  137PC     H4C 5379   3.822   3.534   8.067
  137PC     C35 5380   4.137   3.398   8.113
  137PC     H5A 5381   4.142   3.406   8.222
  137PC     H5B 5382   4.200   3.471   8.062
  137PC     H5C 5383   4.176   3.305   8.073
  137PC     O33 5384   4.305   3.088   7.983
  137PC     O34 5385   4.450   3.256   7.868
  137PC     O21 5386   4.205   3.291   7.558
  137PC     C21 5387   4.243   3.399   7.496
  137PC     O22 5388   4.338   3.411   7.427
  138MY    H14T 5389   5.007   4.196   6.904
  138MY    C114 5390   4.970   4.209   6.802
  138MY    H14R 5391   4.992   4.299   6.744
  138MY    H14S 5392   5.009   4.121   6.749
  138MY    C113 5393   4.818   4.195   6.819
  138MY    H13R 5394   4.781   4.272   6.886
  138MY    H13S 5395   4.766   4.205   6.723
  138MY    C112 5396   4.763   4.058   6.881
  138MY    H12R 5397   4.657   4.050   6.857
  138MY    H12S 5398   4.825   3.980   6.836
  138MY    C111 5399   4.775   4.065   7.038
  138MY    H11R 5400   4.869   4.109   7.071
  138MY    H11S 5401   4.695   4.132   7.069
  138MY    C110 5402   4.745   3.931   7.094
  138MY    H10R 5403   4.647   3.905   7.055
  138MY    H10S 5404   4.823   3.864   7.056
  138MY     C19 5405   4.743   3.933   7.246
  138MY     H9R 5406   4.843   3.944   7.290
  138MY     H9S 5407   4.669   4.008   7.276
  138MY     C18 5408   4.693   3.794   7.293
  138MY     H8R 5409   4.727   3.716   7.224
  138MY     H8S 5410   4.740   3.770   7.389
  138MY     C17 5411   4.536   3.780   7.302
  138MY     H7R 5412   4.484   3.823   7.216
  138MY     H7S 5413   4.515   3.673   7.301
  138MY     C16 5414   4.469   3.853   7.418
  138MY     H6R 5415   4.488   3.805   7.514
  138MY     H6S 5416   4.515   3.951   7.425
  138MY     C15 5417   4.316   3.867   7.397
  138MY     H5R 5418   4.266   3.925   7.475
  138MY     H5S 5419   4.308   3.920   7.302
  138MY     C14 5420   4.254   3.727   7.395
  138MY     H4R 5421   4.156   3.731   7.347
  138MY     H4S 5422   4.300   3.676   7.311
  138MY     C13 5423   4.262   3.655   7.530
  138MY     H3R 5424   4.364   3.636   7.564
  138MY     H3S 5425   4.213   3.728   7.594
  138MY     C12 5426   4.184   3.529   7.550
  138MY     H2R 5427   4.158   3.507   7.653
  138MY     H2S 5428   4.094   3.556   7.494
  139MY    H14T 5429   2.925   0.934   6.470
  139MY    C114 5430   2.978   1.025   6.441
  139MY    H14R 5431   2.923   1.073   6.360
  139MY    H14S 5432   3.003   1.094   6.521
  139MY    C113 5433   3.117   0.979   6.393
  139MY    H13R 5434   3.100   0.922   6.302
  139MY    H13S 5435   3.182   1.063   6.370
  139MY    C112 5436   3.186   0.882   6.489
  139MY    H12R 5437   3.119   0.799   6.512
  139MY    H12S 5438   3.268   0.831   6.440
  139MY    C111 5439   3.240   0.922   6.623
  139MY    H11R 5440   3.163   0.955   6.693
  139MY    H11S 5441   3.283   0.828   6.656
  139MY    C110 5442   3.341   1.039   6.617
  139MY    H10R 5443   3.401   1.023   6.528
  139MY    H10S 5444   3.281   1.128   6.595
  139MY     C19 5445   3.418   1.057   6.751
  139MY     H9R 5446   3.365   1.031   6.843
  139MY     H9S 5447   3.498   0.984   6.763
  139MY     C18 5448   3.472   1.200   6.759
  139MY     H8R 5449   3.560   1.210   6.695
  139MY     H8S 5450   3.392   1.265   6.725
  139MY     C17 5451   3.531   1.246   6.896
  139MY     H7R 5452   3.602   1.173   6.936
  139MY     H7S 5453   3.576   1.345   6.883
  139MY     C16 5454   3.426   1.268   7.004
  139MY     H6R 5455   3.348   1.335   6.968
  139MY     H6S 5456   3.380   1.169   7.014
  139MY     C15 5457   3.488   1.313   7.140
  139MY     H5R 5458   3.575   1.254   7.168
  139MY     H5S 5459   3.506   1.420   7.139
  139MY     C14 5460   3.386   1.290   7.262
  139MY     H4R 5461   3.321   1.377   7.252
  139MY     H4S 5462   3.317   1.206   7.255
  139MY     C13 5463   3.454   1.319   7.395
  139MY     H3R 5464   3.535   1.245   7.397
  139MY     H3S 5465   3.500   1.418   7.393
  139MY     C12 5466   3.356   1.308   7.508
  139MY     H2R 5467   3.279   1.384   7.497
  139MY     H2S 5468   3.313   1.208   7.502
  140PC     C11 5469   3.410   1.317   7.647
  140PC     O12 5470   3.501   1.243   7.679
  140PC     O11 5471   3.351   1.409   7.725
  140PC      C1 5472   3.401   1.434   7.861
  140PC      HR 5473   3.329   1.499   7.913
  140PC      HS 5474   3.406   1.338   7.913
  140PC      C2 5475   3.538   1.516   7.864
  140PC      HX 5476   3.610   1.455   7.808
  140PC      C3 5477   3.593   1.531   8.004
  140PC      HA 5478   3.607   1.440   8.062
  140PC      HB 5479   3.694   1.574   8.001
  140PC     O31 5480   3.520   1.631   8.082
  140PC     P31 5481   3.508   1.613   8.241
  140PC     O32 5482   3.388   1.508   8.261
  140PC     C31 5483   3.250   1.549   8.232
  140PC     H1A 5484   3.219   1.624   8.305
  140PC     H1B 5485   3.258   1.595   8.133
  140PC     C32 5486   3.156   1.432   8.241
  140PC     H2A 5487   3.061   1.458   8.193
  140PC     H2B 5488   3.195   1.357   8.172
  140PC     N31 5489   3.131   1.353   8.367
  140PC     C33 5490   3.253   1.276   8.396
  140PC     H3A 5491   3.338   1.344   8.407
  140PC     H3B 5492   3.271   1.191   8.330
  140PC     H3C 5493   3.238   1.239   8.497
  140PC     C34 5494   3.021   1.251   8.333
  140PC     H4A 5495   3.055   1.217   8.235
  140PC     H4B 5496   2.925   1.302   8.328
  140PC     H4C 5497   3.016   1.180   8.416
  140PC     C35 5498   3.092   1.442   8.477
  140PC     H5A 5499   3.099   1.380   8.566
  140PC     H5B 5500   2.990   1.473   8.455
  140PC     H5C 5501   3.156   1.530   8.474
  140PC     O33 5502   3.629   1.554   8.296
  140PC     O34 5503   3.469   1.744   8.294
  140PC     O21 5504   3.519   1.646   7.800
  140PC     C21 5505   3.525   1.649   7.661
  140PC     O22 5506   3.569   1.555   7.592
  141MY    H14T 5507   3.445   2.301   6.298
  141MY    C114 5508   3.479   2.335   6.396
  141MY    H14R 5509   3.584   2.328   6.424
  141MY    H14S 5510   3.443   2.437   6.408
  141MY    C113 5511   3.397   2.242   6.489
  141MY    H13R 5512   3.293   2.274   6.479
  141MY    H13S 5513   3.404   2.142   6.446
  141MY    C112 5514   3.439   2.239   6.641
  141MY    H12R 5515   3.358   2.195   6.700
  141MY    H12S 5516   3.465   2.337   6.679
  141MY    C111 5517   3.564   2.154   6.659
  141MY    H11R 5518   3.561   2.063   6.600
  141MY    H11S 5519   3.662   2.202   6.645
  141MY    C110 5520   3.575   2.117   6.812
  141MY    H10R 5521   3.679   2.089   6.830
  141MY    H10S 5522   3.562   2.204   6.877
  141MY     C19 5523   3.476   1.999   6.855
  141MY     H9R 5524   3.374   2.034   6.836
  141MY     H9S 5525   3.496   1.917   6.786
  141MY     C18 5526   3.482   1.959   6.999
  141MY     H8R 5527   3.479   2.053   7.055
  141MY     H8S 5528   3.577   1.912   7.025
  141MY     C17 5529   3.372   1.856   7.035
  141MY     H7R 5530   3.276   1.908   7.040
  141MY     H7S 5531   3.367   1.797   6.943
  141MY     C16 5532   3.393   1.766   7.153
  141MY     H6R 5533   3.334   1.674   7.152
  141MY     H6S 5534   3.498   1.739   7.164
  141MY     C15 5535   3.350   1.833   7.285
  141MY     H5R 5536   3.427   1.905   7.312
  141MY     H5S 5537   3.256   1.888   7.270
  141MY     C14 5538   3.322   1.732   7.393
  141MY     H4R 5539   3.221   1.691   7.387
  141MY     H4S 5540   3.389   1.647   7.376
  141MY     C13 5541   3.342   1.795   7.533
  141MY     H3R 5542   3.301   1.895   7.542
  141MY     H3S 5543   3.284   1.732   7.600
  141MY     C12 5544   3.487   1.784   7.589
  141MY     H2R 5545   3.553   1.798   7.503
  141MY     H2S 5546   3.517   1.862   7.660
  142MY    H14T 5547   0.302   5.826   6.137
  142MY    C114 5548   0.316   5.829   6.028
  142MY    H14R 5549   0.395   5.757   6.007
  142MY    H14S 5550   0.226   5.791   5.981
  142MY    C113 5551   0.376   5.963   5.998
  142MY    H13R 5552   0.415   5.951   5.897
  142MY    H13S 5553   0.295   6.037   6.005
  142MY    C112 5554   0.490   6.006   6.086
  142MY    H12R 5555   0.563   5.925   6.077
  142MY    H12S 5556   0.535   6.097   6.046
  142MY    C111 5557   0.451   6.019   6.229
  142MY    H11R 5558   0.465   6.126   6.248
  142MY    H11S 5559   0.346   5.994   6.247
  142MY    C110 5560   0.545   5.953   6.329
  142MY    H10R 5561   0.522   5.846   6.324
  142MY    H10S 5562   0.650   5.969   6.302
  142MY     C19 5563   0.536   5.990   6.474
  142MY     H9R 5564   0.435   6.026   6.490
  142MY     H9S 5565   0.555   5.893   6.521
  142MY     C18 5566   0.623   6.099   6.536
  142MY     H8R 5567   0.726   6.091   6.503
  142MY     H8S 5568   0.576   6.189   6.494
  142MY     C17 5569   0.618   6.099   6.687
  142MY     H7R 5570   0.667   6.009   6.726
  142MY     H7S 5571   0.677   6.187   6.716
  142MY     C16 5572   0.479   6.122   6.748
  142MY     H6R 5573   0.437   6.214   6.707
  142MY     H6S 5574   0.405   6.048   6.715
  142MY     C15 5575   0.471   6.125   6.904
  142MY     H5R 5576   0.366   6.147   6.925
  142MY     H5S 5577   0.490   6.027   6.949
  142MY     C14 5578   0.553   6.237   6.965
  142MY     H4R 5579   0.658   6.222   6.939
  142MY     H4S 5580   0.514   6.332   6.928
  142MY     C13 5581   0.555   6.239   7.117
  142MY     H3R 5582   0.454   6.239   7.159
  142MY     H3S 5583   0.583   6.140   7.152
  142MY     C12 5584   0.644   6.353   7.170
  142MY     H2R 5585   0.744   6.340   7.128
  142MY     H2S 5586   0.610   6.449   7.131
  143PC     C11 5587   0.658   6.355   7.323
  143PC     O12 5588   0.654   6.261   7.403
  143PC     O11 5589   0.695   6.484   7.360
  143PC      C1 5590   0.726   6.524   7.508
  143PC      HR 5591   0.729   6.632   7.524
  143PC      HS 5592   0.659   6.478   7.581
  143PC      C2 5593   0.861   6.473   7.559
  143PC      HX 5594   0.858   6.364   7.555
  143PC      C3 5595   0.889   6.526   7.705
  143PC      HA 5596   0.983   6.477   7.732
  143PC      HB 5597   0.883   6.634   7.722
  143PC     O31 5598   0.792   6.474   7.799
  143PC     P31 5599   0.816   6.354   7.898
  143PC     O32 5600   0.777   6.229   7.801
  143PC     C31 5601   0.640   6.192   7.797
  143PC     H1A 5602   0.622   6.140   7.891
  143PC     H1B 5603   0.579   6.283   7.793
  143PC     C32 5604   0.630   6.104   7.681
  143PC     H2A 5605   0.662   6.164   7.595
  143PC     H2B 5606   0.693   6.017   7.698
  143PC     N31 5607   0.496   6.054   7.645
  143PC     C33 5608   0.400   6.170   7.611
  143PC     H3A 5609   0.455   6.246   7.556
  143PC     H3B 5610   0.354   6.234   7.688
  143PC     H3C 5611   0.313   6.134   7.556
  143PC     C34 5612   0.435   5.967   7.751
  143PC     H4A 5613   0.337   5.930   7.721
  143PC     H4B 5614   0.414   6.024   7.842
  143PC     H4C 5615   0.500   5.880   7.760
  143PC     C35 5616   0.524   5.975   7.526
  143PC     H5A 5617   0.558   5.875   7.554
  143PC     H5B 5618   0.597   6.039   7.476
  143PC     H5C 5619   0.428   5.966   7.473
  143PC     O33 5620   0.957   6.338   7.931
  143PC     O34 5621   0.716   6.357   8.002
  143PC     O21 5622   0.964   6.531   7.477
  143PC     C21 5623   0.997   6.462   7.363
  143PC     O22 5624   0.969   6.344   7.351
  144MY    H14T 5625   2.230   5.836   6.756
  144MY    C114 5626   2.154   5.905   6.793
  144MY    H14R 5627   2.138   5.995   6.734
  144MY    H14S 5628   2.057   5.854   6.787
  144MY    C113 5629   2.198   5.927   6.936
  144MY    H13R 5630   2.257   5.843   6.974
  144MY    H13S 5631   2.257   6.019   6.945
  144MY    C112 5632   2.083   5.945   7.028
  144MY    H12R 5633   2.021   5.856   7.025
  144MY    H12S 5634   2.113   5.946   7.133
  144MY    C111 5635   2.006   6.069   6.989
  144MY    H11R 5636   2.075   6.149   7.018
  144MY    H11S 5637   1.989   6.073   6.882
  144MY    C110 5638   1.870   6.091   7.058
  144MY    H10R 5639   1.819   5.995   7.069
  144MY    H10S 5640   1.893   6.137   7.154
  144MY     C19 5641   1.782   6.192   6.983
  144MY     H9R 5642   1.830   6.290   6.990
  144MY     H9S 5643   1.776   6.168   6.877
  144MY     C18 5644   1.641   6.210   7.045
  144MY     H8R 5645   1.585   6.116   7.044
  144MY     H8S 5646   1.665   6.232   7.149
  144MY     C17 5647   1.551   6.316   6.988
  144MY     H7R 5648   1.596   6.386   6.916
  144MY     H7S 5649   1.481   6.268   6.918
  144MY     C16 5650   1.485   6.403   7.096
  144MY     H6R 5651   1.556   6.470   7.145
  144MY     H6S 5652   1.410   6.459   7.040
  144MY     C15 5653   1.411   6.334   7.209
  144MY     H5R 5654   1.370   6.239   7.175
  144MY     H5S 5655   1.479   6.306   7.289
  144MY     C14 5656   1.293   6.415   7.267
  144MY     H4R 5657   1.252   6.347   7.343
  144MY     H4S 5658   1.337   6.506   7.308
  144MY     C13 5659   1.170   6.455   7.183
  144MY     H3R 5660   1.203   6.506   7.093
  144MY     H3S 5661   1.110   6.369   7.152
  144MY     C12 5662   1.067   6.546   7.261
  144MY     H2R 5663   1.128   6.624   7.309
  144MY     H2S 5664   0.988   6.600   7.208
  145MY    H14T 5665   5.715   3.367   6.102
  145MY    C114 5666   5.624   3.323   6.060
  145MY    H14R 5667   5.554   3.301   6.140
  145MY    H14S 5668   5.589   3.382   5.975
  145MY    C113 5669   5.670   3.190   5.998
  145MY    H13R 5670   5.594   3.144   5.934
  145MY    H13S 5671   5.742   3.209   5.918
  145MY    C112 5672   5.711   3.087   6.110
  145MY    H12R 5673   5.765   3.140   6.189
  145MY    H12S 5674   5.626   3.048   6.165
  145MY    C111 5675   5.784   2.965   6.048
  145MY    H11R 5676   5.708   2.905   5.996
  145MY    H11S 5677   5.855   3.003   5.974
  145MY    C110 5678   5.852   2.882   6.152
  145MY    H10R 5679   5.912   2.805   6.103
  145MY    H10S 5680   5.922   2.959   6.185
  145MY     C19 5681   5.760   2.824   6.263
  145MY     H9R 5682   5.716   2.914   6.307
  145MY     H9S 5683   5.673   2.768   6.227
  145MY     C18 5684   5.839   2.734   6.362
  145MY     H8R 5685   5.941   2.772   6.357
  145MY     H8S 5686   5.790   2.732   6.460
  145MY     C17 5687   5.837   2.585   6.311
  145MY     H7R 5688   5.735   2.547   6.316
  145MY     H7S 5689   5.867   2.594   6.206
  145MY     C16 5690   5.938   2.497   6.387
  145MY     H6R 5691   5.952   2.398   6.344
  145MY     H6S 5692   6.031   2.550   6.365
  145MY     C15 5693   5.906   2.489   6.537
  145MY     H5R 5694   5.882   2.586   6.580
  145MY     H5S 5695   5.817   2.427   6.546
  145MY     C14 5696   6.012   2.443   6.631
  145MY     H4R 5697   6.073   2.374   6.572
  145MY     H4S 5698   6.070   2.531   6.661
  145MY     C13 5699   5.968   2.400   6.774
  145MY     H3R 5700   5.875   2.343   6.771
  145MY     H3S 5701   6.048   2.328   6.791
  145MY     C12 5702   5.969   2.506   6.884
  145MY     H2R 5703   6.067   2.553   6.894
  145MY     H2S 5704   5.891   2.579   6.861
  146PC     C11 5705   5.940   2.447   7.022
  146PC     O12 5706   6.003   2.360   7.074
  146PC     O11 5707   5.832   2.507   7.075
  146PC      C1 5708   5.811   2.507   7.218
  146PC      HR 5709   5.830   2.406   7.256
  146PC      HS 5710   5.879   2.578   7.264
  146PC      C2 5711   5.668   2.555   7.247
  146PC      HX 5712   5.664   2.658   7.209
  146PC      C3 5713   5.641   2.540   7.398
  146PC      HA 5714   5.696   2.620   7.448
  146PC      HB 5715   5.536   2.566   7.413
  146PC     O31 5716   5.686   2.414   7.454
  146PC     P31 5717   5.765   2.412   7.592
  146PC     O32 5718   5.665   2.492   7.691
  146PC     C31 5719   5.555   2.427   7.753
  146PC     H1A 5720   5.460   2.469   7.720
  146PC     H1B 5721   5.554   2.319   7.737
  146PC     C32 5722   5.580   2.443   7.897
  146PC     H2A 5723   5.684   2.409   7.906
  146PC     H2B 5724   5.568   2.550   7.917
  146PC     N31 5725   5.491   2.368   7.998
  146PC     C33 5726   5.348   2.389   7.956
  146PC     H3A 5727   5.327   2.371   7.851
  146PC     H3B 5728   5.309   2.485   7.990
  146PC     H3C 5729   5.293   2.320   8.021
  146PC     C34 5730   5.507   2.428   8.128
  146PC     H4A 5731   5.428   2.387   8.191
  146PC     H4B 5732   5.507   2.536   8.116
  146PC     H4C 5733   5.609   2.398   8.156
  146PC     C35 5734   5.510   2.221   8.007
  146PC     H5A 5735   5.437   2.189   8.081
  146PC     H5B 5736   5.615   2.201   8.029
  146PC     H5C 5737   5.482   2.193   7.905
  146PC     O33 5738   5.768   2.268   7.626
  146PC     O34 5739   5.886   2.492   7.577
  146PC     O21 5740   5.572   2.475   7.167
  146PC     C21 5741   5.446   2.526   7.143
  146PC     O22 5742   5.408   2.629   7.191
  147MY    H14T 5743   5.368   3.283   6.326
  147MY    C114 5744   5.268   3.241   6.309
  147MY    H14R 5745   5.201   3.264   6.392
  147MY    H14S 5746   5.240   3.287   6.214
  147MY    C113 5747   5.284   3.088   6.292
  147MY    H13R 5748   5.195   3.038   6.329
  147MY    H13S 5749   5.305   3.047   6.193
  147MY    C112 5750   5.387   3.024   6.394
  147MY    H12R 5751   5.394   2.916   6.384
  147MY    H12S 5752   5.484   3.066   6.364
  147MY    C111 5753   5.364   3.056   6.544
  147MY    H11R 5754   5.441   3.015   6.609
  147MY    H11S 5755   5.376   3.165   6.543
  147MY    C110 5756   5.223   3.020   6.600
  147MY    H10R 5757   5.223   3.026   6.709
  147MY    H10S 5758   5.152   3.090   6.556
  147MY     C19 5759   5.174   2.879   6.563
  147MY     H9R 5760   5.180   2.863   6.455
  147MY     H9S 5761   5.252   2.817   6.608
  147MY     C18 5762   5.031   2.840   6.608
  147MY     H8R 5763   5.011   2.890   6.703
  147MY     H8S 5764   4.960   2.879   6.535
  147MY     C17 5765   5.013   2.681   6.630
  147MY     H7R 5766   4.909   2.658   6.656
  147MY     H7S 5767   5.028   2.627   6.536
  147MY     C16 5768   5.112   2.623   6.731
  147MY     H6R 5769   5.205   2.595   6.680
  147MY     H6S 5770   5.135   2.691   6.813
  147MY     C15 5771   5.075   2.489   6.791
  147MY     H5R 5772   4.991   2.506   6.860
  147MY     H5S 5773   5.032   2.423   6.715
  147MY     C14 5774   5.189   2.412   6.853
  147MY     H4R 5775   5.147   2.320   6.894
  147MY     H4S 5776   5.256   2.382   6.772
  147MY     C13 5777   5.259   2.501   6.965
  147MY     H3R 5778   5.311   2.584   6.917
  147MY     H3S 5779   5.189   2.555   7.029
  147MY     C12 5780   5.360   2.433   7.053
  147MY     H2R 5781   5.298   2.365   7.112
  147MY     H2S 5782   5.420   2.371   6.987
  148MY    H14T 5783   5.638   2.177   6.100
  148MY    C114 5784   5.576   2.104   6.154
  148MY    H14R 5785   5.632   2.058   6.235
  148MY    H14S 5786   5.554   2.022   6.085
  148MY    C113 5787   5.456   2.181   6.211
  148MY    H13R 5788   5.391   2.219   6.131
  148MY    H13S 5789   5.396   2.118   6.277
  148MY    C112 5790   5.502   2.297   6.307
  148MY    H12R 5791   5.545   2.260   6.401
  148MY    H12S 5792   5.581   2.346   6.250
  148MY    C111 5793   5.380   2.392   6.336
  148MY    H11R 5794   5.334   2.428   6.244
  148MY    H11S 5795   5.299   2.336   6.383
  148MY    C110 5796   5.409   2.512   6.423
  148MY    H10R 5797   5.471   2.579   6.364
  148MY    H10S 5798   5.314   2.566   6.432
  148MY     C19 5799   5.484   2.486   6.547
  148MY     H9R 5800   5.449   2.396   6.598
  148MY     H9S 5801   5.584   2.453   6.518
  148MY     C18 5802   5.497   2.601   6.650
  148MY     H8R 5803   5.554   2.687   6.614
  148MY     H8S 5804   5.399   2.636   6.684
  148MY     C17 5805   5.581   2.562   6.775
  148MY     H7R 5806   5.526   2.480   6.822
  148MY     H7S 5807   5.679   2.523   6.749
  148MY     C16 5808   5.593   2.688   6.871
  148MY     H6R 5809   5.496   2.736   6.887
  148MY     H6S 5810   5.637   2.653   6.965
  148MY     C15 5811   5.675   2.807   6.817
  148MY     H5R 5812   5.767   2.771   6.770
  148MY     H5S 5813   5.615   2.853   6.738
  148MY     C14 5814   5.705   2.914   6.921
  148MY     H4R 5815   5.727   3.009   6.871
  148MY     H4S 5816   5.614   2.925   6.980
  148MY     C13 5817   5.823   2.873   7.012
  148MY     H3R 5818   5.799   2.769   7.038
  148MY     H3S 5819   5.924   2.870   6.970
  148MY     C12 5820   5.828   2.973   7.125
  148MY     H2R 5821   5.857   3.070   7.086
  148MY     H2S 5822   5.727   2.980   7.167
  149PC     C11 5823   5.912   2.927   7.241
  149PC     O12 5824   5.875   2.833   7.315
  149PC     O11 5825   6.031   2.996   7.246
  149PC      C1 5826   6.128   2.978   7.354
  149PC      HR 5827   6.193   3.065   7.362
  149PC      HS 5828   6.069   2.972   7.446
  149PC      C2 5829   6.220   2.859   7.317
  149PC      HX 5830   6.144   2.781   7.318
  149PC      C3 5831   6.323   2.838   7.426
  149PC      HA 5832   6.404   2.777   7.385
  149PC      HB 5833   6.359   2.937   7.455
  149PC     O31 5834   6.270   2.770   7.542
  149PC     P31 5835   6.256   2.839   7.688
  149PC     O32 5836   6.404   2.834   7.750
  149PC     C31 5837   6.499   2.935   7.732
  149PC     H1A 5838   6.515   2.933   7.624
  149PC     H1B 5839   6.460   3.035   7.751
  149PC     C32 5840   6.627   2.900   7.813
  149PC     H2A 5841   6.650   2.794   7.800
  149PC     H2B 5842   6.714   2.961   7.786
  149PC     N31 5843   6.612   2.913   7.962
  149PC     C33 5844   6.563   3.044   8.000
  149PC     H3A 5845   6.639   3.117   7.971
  149PC     H3B 5846   6.536   3.043   8.105
  149PC     H3C 5847   6.472   3.066   7.944
  149PC     C34 5848   6.747   2.886   8.018
  149PC     H4A 5849   6.744   2.871   8.126
  149PC     H4B 5850   6.810   2.974   8.000
  149PC     H4C 5851   6.793   2.796   7.976
  149PC     C35 5852   6.509   2.812   8.010
  149PC     H5A 5853   6.417   2.837   7.955
  149PC     H5B 5854   6.502   2.826   8.118
  149PC     H5C 5855   6.537   2.710   7.984
  149PC     O33 5856   6.213   2.986   7.685
  149PC     O34 5857   6.164   2.754   7.767
  149PC     O21 5858   6.292   2.862   7.195
  149PC     C21 5859   6.232   2.804   7.085
  149PC     O22 5860   6.123   2.749   7.086
  150MY    H14T 5861   6.044   3.697   6.047
  150MY    C114 5862   6.008   3.701   6.150
  150MY    H14R 5863   6.098   3.712   6.211
  150MY    H14S 5864   5.954   3.793   6.170
  150MY    C113 5865   5.929   3.573   6.175
  150MY    H13R 5866   5.832   3.579   6.127
  150MY    H13S 5867   5.970   3.485   6.124
  150MY    C112 5868   5.908   3.544   6.319
  150MY    H12R 5869   6.006   3.541   6.368
  150MY    H12S 5870   5.855   3.631   6.355
  150MY    C111 5871   5.835   3.412   6.337
  150MY    H11R 5872   5.731   3.422   6.305
  150MY    H11S 5873   5.877   3.330   6.278
  150MY    C110 5874   5.841   3.353   6.484
  150MY    H10R 5875   5.944   3.342   6.518
  150MY    H10S 5876   5.803   3.434   6.547
  150MY     C19 5877   5.758   3.229   6.519
  150MY     H9R 5878   5.658   3.272   6.512
  150MY     H9S 5879   5.775   3.148   6.448
  150MY     C18 5880   5.777   3.177   6.663
  150MY     H8R 5881   5.723   3.237   6.736
  150MY     H8S 5882   5.738   3.076   6.677
  150MY     C17 5883   5.925   3.162   6.715
  150MY     H7R 5884   5.953   3.265   6.741
  150MY     H7S 5885   5.920   3.108   6.810
  150MY     C16 5886   6.027   3.085   6.624
  150MY     H6R 5887   5.980   2.991   6.595
  150MY     H6S 5888   6.049   3.133   6.529
  150MY     C15 5889   6.162   3.055   6.698
  150MY     H5R 5890   6.233   3.028   6.620
  150MY     H5S 5891   6.199   3.152   6.733
  150MY     C14 5892   6.157   2.948   6.812
  150MY     H4R 5893   6.097   2.975   6.898
  150MY     H4S 5894   6.130   2.851   6.771
  150MY     C13 5895   6.298   2.943   6.879
  150MY     H3R 5896   6.375   2.947   6.801
  150MY     H3S 5897   6.319   3.031   6.941
  150MY     C12 5898   6.317   2.818   6.961
  150MY     H2R 5899   6.274   2.739   6.899
  150MY     H2S 5900   6.421   2.794   6.986
  151MY    H14T 5901   1.273   1.880   6.173
  151MY    C114 5902   1.247   1.828   6.266
  151MY    H14R 5903   1.185   1.745   6.232
  151MY    H14S 5904   1.339   1.793   6.313
  151MY    C113 5905   1.159   1.916   6.367
  151MY    H13R 5906   1.066   1.943   6.318
  151MY    H13S 5907   1.136   1.852   6.453
  151MY    C112 5908   1.217   2.051   6.415
  151MY    H12R 5909   1.323   2.042   6.440
  151MY    H12S 5910   1.209   2.122   6.332
  151MY    C111 5911   1.131   2.098   6.533
  151MY    H11R 5912   1.031   2.128   6.498
  151MY    H11S 5913   1.111   2.014   6.600
  151MY    C110 5914   1.176   2.224   6.608
  151MY    H10R 5915   1.271   2.206   6.659
  151MY    H10S 5916   1.191   2.304   6.535
  151MY     C19 5917   1.066   2.260   6.722
  151MY     H9R 5918   0.968   2.258   6.675
  151MY     H9S 5919   1.077   2.183   6.799
  151MY     C18 5920   1.088   2.397   6.801
  151MY     H8R 5921   1.190   2.391   6.839
  151MY     H8S 5922   1.069   2.487   6.742
  151MY     C17 5923   0.983   2.403   6.914
  151MY     H7R 5924   0.894   2.451   6.872
  151MY     H7S 5925   0.942   2.306   6.941
  151MY     C16 5926   1.025   2.483   7.044
  151MY     H6R 5927   1.094   2.431   7.110
  151MY     H6S 5928   1.076   2.572   7.006
  151MY     C15 5929   0.897   2.538   7.116
  151MY     H5R 5930   0.925   2.606   7.197
  151MY     H5S 5931   0.848   2.600   7.041
  151MY     C14 5932   0.796   2.429   7.161
  151MY     H4R 5933   0.760   2.385   7.068
  151MY     H4S 5934   0.854   2.357   7.218
  151MY     C13 5935   0.666   2.473   7.231
  151MY     H3R 5936   0.680   2.521   7.328
  151MY     H3S 5937   0.620   2.555   7.175
  151MY     C12 5938   0.577   2.351   7.262
  151MY     H2R 5939   0.487   2.391   7.310
  151MY     H2S 5940   0.547   2.298   7.172
  152PC     C11 5941   0.664   2.262   7.354
  152PC     O12 5942   0.716   2.165   7.308
  152PC     O11 5943   0.673   2.306   7.482
  152PC      C1 5944   0.750   2.217   7.563
  152PC      HR 5945   0.693   2.124   7.568
  152PC      HS 5946   0.847   2.190   7.520
  152PC      C2 5947   0.790   2.274   7.702
  152PC      HX 5948   0.857   2.203   7.751
  152PC      C3 5949   0.668   2.283   7.790
  152PC      HA 5950   0.689   2.321   7.891
  152PC      HB 5951   0.595   2.350   7.745
  152PC     O31 5952   0.607   2.154   7.813
  152PC     P31 5953   0.609   2.074   7.950
  152PC     O32 5954   0.496   2.139   8.044
  152PC     C31 5955   0.533   2.233   8.140
  152PC     H1A 5956   0.598   2.184   8.212
  152PC     H1B 5957   0.590   2.318   8.102
  152PC     C32 5958   0.403   2.291   8.196
  152PC     H2A 5959   0.425   2.371   8.267
  152PC     H2B 5960   0.335   2.339   8.125
  152PC     N31 5961   0.300   2.198   8.260
  152PC     C33 5962   0.226   2.129   8.152
  152PC     H3A 5963   0.209   2.210   8.082
  152PC     H3B 5964   0.133   2.088   8.190
  152PC     H3C 5965   0.300   2.068   8.099
  152PC     C34 5966   0.204   2.284   8.333
  152PC     H4A 5967   0.134   2.224   8.392
  152PC     H4B 5968   0.142   2.342   8.264
  152PC     H4C 5969   0.258   2.342   8.407
  152PC     C35 5970   0.360   2.111   8.366
  152PC     H5A 5971   0.396   2.016   8.326
  152PC     H5B 5972   0.277   2.093   8.434
  152PC     H5C 5973   0.449   2.156   8.412
  152PC     O33 5974   0.571   1.932   7.927
  152PC     O34 5975   0.746   2.100   8.006
  152PC     O21 5976   0.848   2.401   7.676
  152PC     C21 5977   0.981   2.416   7.681
  152PC     O22 5978   1.057   2.336   7.732
  153MY    H14T 5979   1.385   2.695   6.319
  153MY    C114 5980   1.386   2.627   6.405
  153MY    H14R 5981   1.295   2.567   6.401
  153MY    H14S 5982   1.465   2.552   6.402
  153MY    C113 5983   1.387   2.715   6.529
  153MY    H13R 5984   1.468   2.788   6.529
  153MY    H13S 5985   1.297   2.774   6.512
  153MY    C112 5986   1.389   2.644   6.665
  153MY    H12R 5987   1.306   2.574   6.667
  153MY    H12S 5988   1.486   2.593   6.671
  153MY    C111 5989   1.391   2.741   6.784
  153MY    H11R 5990   1.463   2.823   6.782
  153MY    H11S 5991   1.294   2.791   6.787
  153MY    C110 5992   1.410   2.651   6.913
  153MY    H10R 5993   1.349   2.561   6.903
  153MY    H10S 5994   1.516   2.624   6.914
  153MY     C19 5995   1.360   2.727   7.037
  153MY     H9R 5996   1.405   2.826   7.034
  153MY     H9S 5997   1.253   2.743   7.025
  153MY     C18 5998   1.400   2.663   7.170
  153MY     H8R 5999   1.363   2.561   7.154
  153MY     H8S 6000   1.509   2.658   7.173
  153MY     C17 6001   1.337   2.730   7.294
  153MY     H7R 6002   1.389   2.702   7.386
  153MY     H7S 6003   1.353   2.837   7.277
  153MY     C16 6004   1.190   2.706   7.311
  153MY     H6R 6005   1.135   2.733   7.221
  153MY     H6S 6006   1.169   2.598   7.316
  153MY     C15 6007   1.129   2.775   7.429
  153MY     H5R 6008   1.129   2.883   7.414
  153MY     H5S 6009   1.025   2.741   7.428
  153MY     C14 6010   1.196   2.737   7.565
  153MY     H4R 6011   1.304   2.748   7.559
  153MY     H4S 6012   1.152   2.802   7.641
  153MY     C13 6013   1.166   2.592   7.617
  153MY     H3R 6014   1.230   2.523   7.561
  153MY     H3S 6015   1.206   2.574   7.716
  153MY     C12 6016   1.023   2.544   7.607
  153MY     H2R 6017   0.962   2.622   7.651
  153MY     H2S 6018   0.988   2.536   7.504
  154MY    H14T 6019   2.295   0.512   6.726
  154MY    C114 6020   2.289   0.614   6.764
  154MY    H14R 6021   2.185   0.636   6.788
  154MY    H14S 6022   2.346   0.615   6.857
  154MY    C113 6023   2.349   0.724   6.673
  154MY    H13R 6024   2.284   0.734   6.587
  154MY    H13S 6025   2.347   0.814   6.734
  154MY    C112 6026   2.496   0.701   6.628
  154MY    H12R 6027   2.547   0.691   6.724
  154MY    H12S 6028   2.498   0.605   6.575
  154MY    C111 6029   2.549   0.818   6.542
  154MY    H11R 6030   2.648   0.797   6.501
  154MY    H11S 6031   2.475   0.850   6.468
  154MY    C110 6032   2.568   0.952   6.620
  154MY    H10R 6033   2.627   1.026   6.565
  154MY    H10S 6034   2.471   0.995   6.646
  154MY     C19 6035   2.649   0.929   6.756
  154MY     H9R 6036   2.587   0.871   6.823
  154MY     H9S 6037   2.740   0.871   6.739
  154MY     C18 6038   2.678   1.069   6.818
  154MY     H8R 6039   2.739   1.132   6.753
  154MY     H8S 6040   2.584   1.123   6.805
  154MY     C17 6041   2.733   1.067   6.960
  154MY     H7R 6042   2.805   0.985   6.967
  154MY     H7S 6043   2.783   1.161   6.986
  154MY     C16 6044   2.629   1.036   7.075
  154MY     H6R 6045   2.556   1.118   7.066
  154MY     H6S 6046   2.571   0.945   7.062
  154MY     C15 6047   2.679   1.029   7.217
  154MY     H5R 6048   2.774   1.082   7.229
  154MY     H5S 6049   2.607   1.081   7.280
  154MY     C14 6050   2.701   0.881   7.269
  154MY     H4R 6051   2.602   0.838   7.253
  154MY     H4S 6052   2.776   0.836   7.205
  154MY     C13 6053   2.745   0.873   7.422
  154MY     H3R 6054   2.823   0.949   7.430
  154MY     H3S 6055   2.662   0.907   7.484
  154MY     C12 6056   2.799   0.733   7.463
  154MY     H2R 6057   2.730   0.654   7.434
  154MY     H2S 6058   2.893   0.708   7.412
  155PC     C11 6059   2.816   0.735   7.613
  155PC     O12 6060   2.742   0.683   7.695
  155PC     O11 6061   2.924   0.803   7.646
  155PC      C1 6062   2.954   0.846   7.782
  155PC      HR 6063   2.869   0.865   7.848
  155PC      HS 6064   3.027   0.784   7.836
  155PC      C2 6065   3.021   0.979   7.759
  155PC      HX 6066   3.108   0.961   7.696
  155PC      C3 6067   3.056   1.044   7.898
  155PC      HA 6068   3.128   0.979   7.947
  155PC      HB 6069   3.101   1.143   7.883
  155PC     O31 6070   2.952   1.045   8.003
  155PC     P31 6071   2.841   1.152   8.025
  155PC     O32 6072   2.724   1.086   7.936
  155PC     C31 6073   2.625   0.996   7.992
  155PC     H1A 6074   2.576   0.947   7.908
  155PC     H1B 6075   2.663   0.916   8.057
  155PC     C32 6076   2.516   1.072   8.079
  155PC     H2A 6077   2.574   1.121   8.158
  155PC     H2B 6078   2.469   1.152   8.021
  155PC     N31 6079   2.407   0.995   8.147
  155PC     C33 6080   2.322   0.925   8.045
  155PC     H3A 6081   2.250   0.864   8.099
  155PC     H3B 6082   2.382   0.865   7.976
  155PC     H3C 6083   2.259   1.000   7.997
  155PC     C34 6084   2.332   1.079   8.243
  155PC     H4A 6085   2.401   1.149   8.290
  155PC     H4B 6086   2.275   1.009   8.305
  155PC     H4C 6087   2.253   1.134   8.192
  155PC     C35 6088   2.467   0.884   8.234
  155PC     H5A 6089   2.509   0.815   8.161
  155PC     H5B 6090   2.387   0.835   8.289
  155PC     H5C 6091   2.546   0.932   8.292
  155PC     O33 6092   2.788   1.148   8.161
  155PC     O34 6093   2.876   1.282   7.963
  155PC     O21 6094   2.928   1.072   7.696
  155PC     C21 6095   2.975   1.169   7.625
  155PC     O22 6096   3.095   1.205   7.631
  156MY    H14T 6097   2.418   1.389   6.339
  156MY    C114 6098   2.510   1.413   6.393
  156MY    H14R 6099   2.569   1.323   6.410
  156MY    H14S 6100   2.558   1.485   6.327
  156MY    C113 6101   2.474   1.478   6.526
  156MY    H13R 6102   2.554   1.463   6.599
  156MY    H13S 6103   2.454   1.584   6.509
  156MY    C112 6104   2.350   1.411   6.591
  156MY    H12R 6105   2.270   1.396   6.517
  156MY    H12S 6106   2.384   1.316   6.631
  156MY    C111 6107   2.290   1.504   6.703
  156MY    H11R 6108   2.261   1.597   6.654
  156MY    H11S 6109   2.205   1.458   6.753
  156MY    C110 6110   2.390   1.546   6.815
  156MY    H10R 6111   2.465   1.611   6.769
  156MY    H10S 6112   2.336   1.603   6.891
  156MY     C19 6113   2.467   1.436   6.888
  156MY     H9R 6114   2.404   1.357   6.929
  156MY     H9S 6115   2.542   1.386   6.826
  156MY     C18 6116   2.548   1.508   7.003
  156MY     H8R 6117   2.633   1.564   6.961
  156MY     H8S 6118   2.479   1.580   7.048
  156MY     C17 6119   2.604   1.415   7.113
  156MY     H7R 6120   2.535   1.336   7.143
  156MY     H7S 6121   2.691   1.367   7.066
  156MY     C16 6122   2.667   1.489   7.228
  156MY     H6R 6123   2.727   1.565   7.177
  156MY     H6S 6124   2.599   1.536   7.298
  156MY     C15 6125   2.763   1.397   7.307
  156MY     H5R 6126   2.701   1.327   7.362
  156MY     H5S 6127   2.835   1.349   7.240
  156MY     C14 6128   2.847   1.468   7.413
  156MY     H4R 6129   2.897   1.550   7.362
  156MY     H4S 6130   2.791   1.519   7.492
  156MY     C13 6131   2.944   1.372   7.474
  156MY     H3R 6132   2.994   1.321   7.391
  156MY     H3S 6133   3.009   1.419   7.548
  156MY     C12 6134   2.872   1.257   7.552
  156MY     H2R 6135   2.799   1.300   7.621
  156MY     H2S 6136   2.804   1.197   7.491
  157MY    H14T 6137   4.479   1.768   6.900
  157MY    C114 6138   4.436   1.854   6.953
  157MY    H14R 6139   4.338   1.832   6.994
  157MY    H14S 6140   4.508   1.865   7.035
  157MY    C113 6141   4.445   1.977   6.860
  157MY    H13R 6142   4.379   1.958   6.775
  157MY    H13S 6143   4.548   1.989   6.826
  157MY    C112 6144   4.399   2.110   6.924
  157MY    H12R 6145   4.459   2.119   7.015
  157MY    H12S 6146   4.407   2.193   6.853
  157MY    C111 6147   4.252   2.109   6.974
  157MY    H11R 6148   4.207   2.032   6.911
  157MY    H11S 6149   4.249   2.085   7.080
  157MY    C110 6150   4.173   2.240   6.954
  157MY    H10R 6151   4.234   2.322   6.994
  157MY    H10S 6152   4.168   2.265   6.848
  157MY     C19 6153   4.036   2.260   7.023
  157MY     H9R 6154   3.968   2.175   7.013
  157MY     H9S 6155   4.054   2.281   7.129
  157MY     C18 6156   3.966   2.382   6.960
  157MY     H8R 6157   4.025   2.474   6.955
  157MY     H8S 6158   3.950   2.337   6.862
  157MY     C17 6159   3.839   2.421   7.028
  157MY     H7R 6160   3.791   2.501   6.972
  157MY     H7S 6161   3.762   2.344   7.041
  157MY     C16 6162   3.870   2.471   7.166
  157MY     H6R 6163   3.919   2.397   7.231
  157MY     H6S 6164   3.937   2.557   7.159
  157MY     C15 6165   3.745   2.506   7.236
  157MY     H5R 6166   3.675   2.565   7.175
  157MY     H5S 6167   3.691   2.416   7.268
  157MY     C14 6168   3.771   2.581   7.369
  157MY     H4R 6169   3.796   2.504   7.443
  157MY     H4S 6170   3.851   2.654   7.359
  157MY     C13 6171   3.646   2.661   7.412
  157MY     H3R 6172   3.676   2.708   7.506
  157MY     H3S 6173   3.627   2.745   7.343
  157MY     C12 6174   3.522   2.578   7.435
  157MY     H2R 6175   3.475   2.541   7.343
  157MY     H2S 6176   3.559   2.492   7.492
  158PC     C11 6177   3.425   2.664   7.513
  158PC     O12 6178   3.321   2.706   7.465
  158PC     O11 6179   3.463   2.690   7.644
  158PC      C1 6180   3.370   2.751   7.737
  158PC      HR 6181   3.434   2.790   7.816
  158PC      HS 6182   3.309   2.824   7.683
  158PC      C2 6183   3.285   2.643   7.818
  158PC      HX 6184   3.212   2.693   7.882
  158PC      C3 6185   3.373   2.543   7.899
  158PC      HA 6186   3.304   2.467   7.936
  158PC      HB 6187   3.448   2.495   7.836
  158PC     O31 6188   3.444   2.610   8.003
  158PC     P31 6189   3.368   2.648   8.140
  158PC     O32 6190   3.421   2.535   8.243
  158PC     C31 6191   3.367   2.409   8.248
  158PC     H1A 6192   3.284   2.390   8.180
  158PC     H1B 6193   3.428   2.321   8.228
  158PC     C32 6194   3.305   2.399   8.397
  158PC     H2A 6195   3.383   2.388   8.472
  158PC     H2B 6196   3.254   2.489   8.430
  158PC     N31 6197   3.217   2.284   8.424
  158PC     C33 6198   3.083   2.301   8.369
  158PC     H3A 6199   3.080   2.341   8.267
  158PC     H3B 6200   3.029   2.371   8.433
  158PC     H3C 6201   3.042   2.202   8.384
  158PC     C34 6202   3.209   2.268   8.572
  158PC     H4A 6203   3.170   2.362   8.613
  158PC     H4B 6204   3.312   2.249   8.603
  158PC     H4C 6205   3.152   2.178   8.595
  158PC     C35 6206   3.275   2.163   8.355
  158PC     H5A 6207   3.257   2.163   8.248
  158PC     H5B 6208   3.230   2.073   8.398
  158PC     H5C 6209   3.383   2.160   8.372
  158PC     O33 6210   3.411   2.786   8.191
  158PC     O34 6211   3.225   2.622   8.116
  158PC     O21 6212   3.218   2.562   7.723
  158PC     C21 6213   3.097   2.599   7.689
  158PC     O22 6214   3.039   2.703   7.719
  159MY    H14T 6215   2.976   2.399   6.325
  159MY    C114 6216   2.955   2.292   6.319
  159MY    H14R 6217   2.882   2.281   6.238
  159MY    H14S 6218   3.047   2.237   6.296
  159MY    C113 6219   2.896   2.259   6.454
  159MY    H13R 6220   2.837   2.345   6.486
  159MY    H13S 6221   2.843   2.165   6.440
  159MY    C112 6222   3.014   2.245   6.555
  159MY    H12R 6223   3.072   2.156   6.531
  159MY    H12S 6224   3.081   2.331   6.554
  159MY    C111 6225   2.949   2.244   6.694
  159MY    H11R 6226   2.904   2.343   6.708
  159MY    H11S 6227   2.868   2.170   6.696
  159MY    C110 6228   3.049   2.217   6.812
  159MY    H10R 6229   3.101   2.125   6.783
  159MY    H10S 6230   3.133   2.285   6.830
  159MY     C19 6231   2.972   2.203   6.946
  159MY     H9R 6232   2.887   2.137   6.927
  159MY     H9S 6233   3.035   2.146   7.013
  159MY     C18 6234   2.923   2.336   7.003
  159MY     H8R 6235   3.008   2.396   7.037
  159MY     H8S 6236   2.883   2.400   6.924
  159MY     C17 6237   2.821   2.320   7.118
  159MY     H7R 6238   2.739   2.249   7.099
  159MY     H7S 6239   2.864   2.265   7.202
  159MY     C16 6240   2.761   2.461   7.168
  159MY     H6R 6241   2.729   2.513   7.077
  159MY     H6S 6242   2.675   2.443   7.232
  159MY     C15 6243   2.859   2.553   7.247
  159MY     H5R 6244   2.953   2.579   7.196
  159MY     H5S 6245   2.817   2.653   7.256
  159MY     C14 6246   2.881   2.493   7.381
  159MY     H4R 6247   2.785   2.496   7.433
  159MY     H4S 6248   2.925   2.393   7.373
  159MY     C13 6249   2.972   2.577   7.468
  159MY     H3R 6250   3.054   2.620   7.409
  159MY     H3S 6251   2.914   2.667   7.491
  159MY     C12 6252   3.018   2.506   7.594
  159MY     H2R 6253   2.931   2.466   7.647
  159MY     H2S 6254   3.081   2.425   7.557
  160MY    H14T 6255   2.849   4.523   6.269
  160MY    C114 6256   2.809   4.591   6.194
  160MY    H14R 6257   2.872   4.594   6.105
  160MY    H14S 6258   2.705   4.566   6.170
  160MY    C113 6259   2.808   4.736   6.244
  160MY    H13R 6260   2.910   4.770   6.263
  160MY    H13S 6261   2.784   4.794   6.155
  160MY    C112 6262   2.719   4.763   6.366
  160MY    H12R 6263   2.696   4.870   6.367
  160MY    H12S 6264   2.623   4.710   6.365
  160MY    C111 6265   2.788   4.755   6.503
  160MY    H11R 6266   2.818   4.653   6.526
  160MY    H11S 6267   2.880   4.813   6.507
  160MY    C110 6268   2.698   4.808   6.607
  160MY    H10R 6269   2.681   4.910   6.572
  160MY    H10S 6270   2.606   4.751   6.620
  160MY     C19 6271   2.773   4.810   6.739
  160MY     H9R 6272   2.779   4.715   6.792
  160MY     H9S 6273   2.872   4.848   6.713
  160MY     C18 6274   2.721   4.910   6.841
  160MY     H8R 6275   2.612   4.916   6.845
  160MY     H8S 6276   2.754   4.862   6.934
  160MY     C17 6277   2.785   5.043   6.830
  160MY     H7R 6278   2.880   5.051   6.883
  160MY     H7S 6279   2.816   5.051   6.725
  160MY     C16 6280   2.702   5.155   6.896
  160MY     H6R 6281   2.752   5.249   6.871
  160MY     H6S 6282   2.597   5.159   6.866
  160MY     C15 6283   2.694   5.139   7.043
  160MY     H5R 6284   2.648   5.044   7.071
  160MY     H5S 6285   2.797   5.130   7.077
  160MY     C14 6286   2.640   5.266   7.115
  160MY     H4R 6287   2.690   5.354   7.074
  160MY     H4S 6288   2.535   5.274   7.084
  160MY     C13 6289   2.646   5.263   7.269
  160MY     H3R 6290   2.594   5.350   7.310
  160MY     H3S 6291   2.586   5.178   7.301
  160MY     C12 6292   2.788   5.266   7.322
  160MY     H2R 6293   2.861   5.216   7.258
  160MY     H2S 6294   2.822   5.370   7.320
  161PC     C11 6295   2.800   5.216   7.461
  161PC     O12 6296   2.769   5.280   7.564
  161PC     O11 6297   2.852   5.092   7.467
  161PC      C1 6298   2.884   5.028   7.586
  161PC      HR 6299   2.953   4.952   7.550
  161PC      HS 6300   2.930   5.091   7.662
  161PC      C2 6301   2.765   4.952   7.642
  161PC      HX 6302   2.697   5.035   7.663
  161PC      C3 6303   2.790   4.871   7.777
  161PC      HA 6304   2.844   4.786   7.737
  161PC      HB 6305   2.856   4.917   7.851
  161PC     O31 6306   2.663   4.831   7.841
  161PC     P31 6307   2.586   4.928   7.947
  161PC     O32 6308   2.688   4.914   8.069
  161PC     C31 6309   2.649   4.821   8.172
  161PC     H1A 6310   2.553   4.859   8.208
  161PC     H1B 6311   2.630   4.719   8.139
  161PC     C32 6312   2.759   4.836   8.276
  161PC     H2A 6313   2.851   4.789   8.240
  161PC     H2B 6314   2.791   4.939   8.292
  161PC     N31 6315   2.729   4.774   8.409
  161PC     C33 6316   2.690   4.637   8.376
  161PC     H3A 6317   2.775   4.587   8.330
  161PC     H3B 6318   2.601   4.640   8.313
  161PC     H3C 6319   2.658   4.593   8.471
  161PC     C34 6320   2.606   4.840   8.473
  161PC     H4A 6321   2.612   4.944   8.442
  161PC     H4B 6322   2.596   4.825   8.580
  161PC     H4C 6323   2.519   4.786   8.434
  161PC     C35 6324   2.841   4.770   8.499
  161PC     H5A 6325   2.926   4.735   8.440
  161PC     H5B 6326   2.813   4.699   8.577
  161PC     H5C 6327   2.846   4.870   8.542
  161PC     O33 6328   2.595   5.065   7.901
  161PC     O34 6329   2.454   4.868   7.968
  161PC     O21 6330   2.700   4.862   7.549
  161PC     C21 6331   2.586   4.899   7.485
  161PC     O22 6332   2.537   5.007   7.491
  162MY    H14T 6333   2.234   4.022   6.100
  162MY    C114 6334   2.298   3.985   6.181
  162MY    H14R 6335   2.218   3.936   6.237
  162MY    H14S 6336   2.358   3.908   6.132
  162MY    C113 6337   2.399   4.071   6.261
  162MY    H13R 6338   2.449   4.000   6.327
  162MY    H13S 6339   2.481   4.119   6.206
  162MY    C112 6340   2.324   4.178   6.335
  162MY    H12R 6341   2.275   4.242   6.261
  162MY    H12S 6342   2.252   4.137   6.406
  162MY    C111 6343   2.429   4.262   6.410
  162MY    H11R 6344   2.506   4.194   6.447
  162MY    H11S 6345   2.483   4.333   6.348
  162MY    C110 6346   2.368   4.324   6.538
  162MY    H10R 6347   2.293   4.402   6.518
  162MY    H10S 6348   2.325   4.243   6.597
  162MY     C19 6349   2.480   4.397   6.613
  162MY     H9R 6350   2.579   4.352   6.604
  162MY     H9S 6351   2.475   4.501   6.579
  162MY     C18 6352   2.446   4.397   6.763
  162MY     H8R 6353   2.341   4.424   6.772
  162MY     H8S 6354   2.468   4.295   6.798
  162MY     C17 6355   2.536   4.510   6.828
  162MY     H7R 6356   2.640   4.485   6.808
  162MY     H7S 6357   2.508   4.605   6.782
  162MY     C16 6358   2.505   4.514   6.980
  162MY     H6R 6359   2.398   4.525   6.995
  162MY     H6S 6360   2.530   4.412   7.012
  162MY     C15 6361   2.585   4.628   7.052
  162MY     H5R 6362   2.690   4.600   7.061
  162MY     H5S 6363   2.582   4.717   6.989
  162MY     C14 6364   2.517   4.664   7.187
  162MY     H4R 6365   2.411   4.675   7.160
  162MY     H4S 6366   2.513   4.585   7.262
  162MY     C13 6367   2.580   4.784   7.262
  162MY     H3R 6368   2.687   4.759   7.262
  162MY     H3S 6369   2.557   4.876   7.208
  162MY     C12 6370   2.532   4.783   7.411
  162MY     H2R 6371   2.423   4.788   7.409
  162MY     H2S 6372   2.567   4.694   7.463
  163MY    H14T 6373   0.703   2.321   6.649
  163MY    C114 6374   0.635   2.336   6.734
  163MY    H14R 6375   0.552   2.267   6.723
  163MY    H14S 6376   0.679   2.310   6.830
  163MY    C113 6377   0.599   2.488   6.734
  163MY    H13R 6378   0.698   2.532   6.719
  163MY    H13S 6379   0.529   2.514   6.654
  163MY    C112 6380   0.543   2.544   6.865
  163MY    H12R 6381   0.442   2.506   6.883
  163MY    H12S 6382   0.603   2.528   6.955
  163MY    C111 6383   0.527   2.691   6.860
  163MY    H11R 6384   0.605   2.749   6.811
  163MY    H11S 6385   0.431   2.713   6.815
  163MY    C110 6386   0.503   2.750   7.004
  163MY    H10R 6387   0.423   2.690   7.048
  163MY    H10S 6388   0.592   2.744   7.067
  163MY     C19 6389   0.460   2.894   7.003
  163MY     H9R 6390   0.544   2.956   6.973
  163MY     H9S 6391   0.384   2.915   6.926
  163MY     C18 6392   0.391   2.941   7.136
  163MY     H8R 6393   0.316   2.873   7.176
  163MY     H8S 6394   0.469   2.947   7.212
  163MY     C17 6395   0.324   3.079   7.118
  163MY     H7R 6396   0.334   3.108   7.013
  163MY     H7S 6397   0.224   3.057   7.154
  163MY     C16 6398   0.373   3.195   7.213
  163MY     H6R 6399   0.381   3.174   7.320
  163MY     H6S 6400   0.472   3.231   7.184
  163MY     C15 6401   0.275   3.319   7.194
  163MY     H5R 6402   0.238   3.319   7.091
  163MY     H5S 6403   0.182   3.295   7.248
  163MY     C14 6404   0.315   3.462   7.242
  163MY     H4R 6405   0.403   3.496   7.187
  163MY     H4S 6406   0.232   3.526   7.212
  163MY     C13 6407   0.335   3.469   7.400
  163MY     H3R 6408   0.256   3.409   7.447
  163MY     H3S 6409   0.433   3.423   7.415
  163MY     C12 6410   0.355   3.606   7.449
  163MY     H2R 6411   0.438   3.658   7.401
  163MY     H2S 6412   0.260   3.659   7.439
  164PC     C11 6413   0.397   3.619   7.597
  164PC     O12 6414   0.343   3.550   7.685
  164PC     O11 6415   0.503   3.704   7.620
  164PC      C1 6416   0.560   3.703   7.759
  164PC      HR 6417   0.628   3.788   7.763
  164PC      HS 6418   0.481   3.719   7.833
  164PC      C2 6419   0.644   3.574   7.793
  164PC      HX 6420   0.572   3.492   7.787
  164PC      C3 6421   0.703   3.565   7.933
  164PC      HA 6422   0.748   3.465   7.939
  164PC      HB 6423   0.777   3.643   7.951
  164PC     O31 6424   0.590   3.582   8.028
  164PC     P31 6425   0.503   3.461   8.085
  164PC     O32 6426   0.361   3.492   8.011
  164PC     C31 6427   0.282   3.606   8.037
  164PC     H1A 6428   0.263   3.612   8.144
  164PC     H1B 6429   0.352   3.686   8.014
  164PC     C32 6430   0.152   3.607   7.945
  164PC     H2A 6431   0.101   3.704   7.943
  164PC     H2B 6432   0.181   3.580   7.844
  164PC     N31 6433   0.044   3.509   7.976
  164PC     C33 6434  -0.026   3.530   8.109
  164PC     H3A 6435   0.039   3.531   8.196
  164PC     H3B 6436  -0.100   3.452   8.126
  164PC     H3C 6437  -0.081   3.624   8.101
  164PC     C34 6438   0.110   3.375   7.981
  164PC     H4A 6439   0.032   3.301   7.967
  164PC     H4B 6440   0.156   3.361   8.079
  164PC     H4C 6441   0.183   3.371   7.900
  164PC     C35 6442  -0.055   3.500   7.874
  164PC     H5A 6443  -0.116   3.412   7.895
  164PC     H5B 6444  -0.003   3.486   7.779
  164PC     H5C 6445  -0.122   3.586   7.876
  164PC     O33 6446   0.560   3.334   8.037
  164PC     O34 6447   0.478   3.471   8.229
  164PC     O21 6448   0.753   3.555   7.697
  164PC     C21 6449   0.731   3.494   7.575
  164PC     O22 6450   0.631   3.436   7.547
  165MY    H14T 6451   0.727   3.229   6.193
  165MY    C114 6452   0.734   3.300   6.276
  165MY    H14R 6453   0.834   3.342   6.268
  165MY    H14S 6454   0.663   3.381   6.262
  165MY    C113 6455   0.713   3.229   6.410
  165MY    H13R 6456   0.768   3.135   6.420
  165MY    H13S 6457   0.774   3.285   6.480
  165MY    C112 6458   0.565   3.215   6.449
  165MY    H12R 6459   0.526   3.312   6.479
  165MY    H12S 6460   0.502   3.170   6.373
  165MY    C111 6461   0.560   3.133   6.579
  165MY    H11R 6462   0.460   3.090   6.594
  165MY    H11S 6463   0.627   3.049   6.559
  165MY    C110 6464   0.601   3.202   6.707
  165MY    H10R 6465   0.617   3.126   6.784
  165MY    H10S 6466   0.698   3.249   6.690
  165MY     C19 6467   0.499   3.312   6.750
  165MY     H9R 6468   0.480   3.380   6.666
  165MY     H9S 6469   0.406   3.258   6.770
  165MY     C18 6470   0.543   3.387   6.873
  165MY     H8R 6471   0.463   3.454   6.904
  165MY     H8S 6472   0.539   3.306   6.946
  165MY     C17 6473   0.677   3.467   6.878
  165MY     H7R 6474   0.759   3.404   6.846
  165MY     H7S 6475   0.661   3.541   6.799
  165MY     C16 6476   0.696   3.528   7.018
  165MY     H6R 6477   0.754   3.620   7.008
  165MY     H6S 6478   0.599   3.553   7.060
  165MY     C15 6479   0.767   3.448   7.122
  165MY     H5R 6480   0.711   3.356   7.141
  165MY     H5S 6481   0.869   3.427   7.090
  165MY     C14 6482   0.768   3.525   7.258
  165MY     H4R 6483   0.808   3.625   7.241
  165MY     H4S 6484   0.664   3.535   7.292
  165MY     C13 6485   0.856   3.451   7.349
  165MY     H3R 6486   0.825   3.346   7.353
  165MY     H3S 6487   0.954   3.449   7.300
  165MY     C12 6488   0.861   3.501   7.492
  165MY     H2R 6489   0.937   3.437   7.537
  165MY     H2S 6490   0.893   3.605   7.500
  166MY    H14T 6491   4.385   2.052   6.305
  166MY    C114 6492   4.345   2.124   6.233
  166MY    H14R 6493   4.365   2.223   6.276
  166MY    H14S 6494   4.374   2.109   6.129
  166MY    C113 6495   4.192   2.121   6.223
  166MY    H13R 6496   4.161   2.213   6.173
  166MY    H13S 6497   4.169   2.033   6.161
  166MY    C112 6498   4.110   2.112   6.355
  166MY    H12R 6499   4.131   2.201   6.415
  166MY    H12S 6500   4.004   2.111   6.328
  166MY    C111 6501   4.147   1.989   6.431
  166MY    H11R 6502   4.097   1.903   6.387
  166MY    H11S 6503   4.254   1.969   6.438
  166MY    C110 6504   4.093   2.019   6.580
  166MY    H10R 6505   4.126   1.938   6.646
  166MY    H10S 6506   4.148   2.106   6.616
  166MY     C19 6507   3.938   2.038   6.593
  166MY     H9R 6508   3.914   2.077   6.692
  166MY     H9S 6509   3.892   2.115   6.530
  166MY     C18 6510   3.869   1.893   6.584
  166MY     H8R 6511   3.760   1.896   6.587
  166MY     H8S 6512   3.886   1.850   6.485
  166MY     C17 6513   3.914   1.791   6.694
  166MY     H7R 6514   3.869   1.698   6.660
  166MY     H7S 6515   4.020   1.770   6.712
  166MY     C16 6516   3.855   1.835   6.834
  166MY     H6R 6517   3.881   1.938   6.857
  166MY     H6S 6518   3.746   1.830   6.845
  166MY     C15 6519   3.920   1.739   6.934
  166MY     H5R 6520   3.908   1.634   6.904
  166MY     H5S 6521   4.026   1.762   6.929
  166MY     C14 6522   3.876   1.750   7.085
  166MY     H4R 6523   3.776   1.706   7.088
  166MY     H4S 6524   3.937   1.684   7.147
  166MY     C13 6525   3.886   1.890   7.151
  166MY     H3R 6526   3.985   1.932   7.132
  166MY     H3S 6527   3.822   1.962   7.100
  166MY     C12 6528   3.859   1.888   7.303
  166MY     H2R 6529   3.760   1.844   7.318
  166MY     H2S 6530   3.926   1.822   7.360
  167PC     C11 6531   3.858   2.022   7.366
  167PC     O12 6532   3.877   2.120   7.300
  167PC     O11 6533   3.822   2.018   7.495
  167PC      C1 6534   3.822   2.133   7.584
  167PC      HR 6535   3.925   2.156   7.612
  167PC      HS 6536   3.782   2.218   7.528
  167PC      C2 6537   3.742   2.093   7.707
  167PC      HX 6538   3.754   2.169   7.785
  167PC      C3 6539   3.783   1.960   7.768
  167PC      HA 6540   3.740   1.876   7.713
  167PC      HB 6541   3.892   1.955   7.769
  167PC     O31 6542   3.747   1.960   7.909
  167PC     P31 6543   3.853   1.989   8.027
  167PC     O32 6544   3.913   1.848   8.060
  167PC     C31 6545   3.839   1.762   8.146
  167PC     H1A 6546   3.733   1.785   8.134
  167PC     H1B 6547   3.863   1.659   8.118
  167PC     C32 6548   3.881   1.790   8.292
  167PC     H2A 6549   3.878   1.898   8.308
  167PC     H2B 6550   3.810   1.739   8.358
  167PC     N31 6551   4.014   1.735   8.344
  167PC     C33 6552   3.997   1.594   8.379
  167PC     H3A 6553   3.905   1.581   8.436
  167PC     H3B 6554   4.077   1.558   8.445
  167PC     H3C 6555   3.990   1.532   8.290
  167PC     C34 6556   4.064   1.813   8.458
  167PC     H4A 6557   4.078   1.920   8.440
  167PC     H4B 6558   4.158   1.771   8.495
  167PC     H4C 6559   3.988   1.797   8.534
  167PC     C35 6560   4.121   1.746   8.241
  167PC     H5A 6561   4.122   1.845   8.196
  167PC     H5B 6562   4.107   1.672   8.163
  167PC     H5C 6563   4.210   1.723   8.300
  167PC     O33 6564   3.964   2.084   7.979
  167PC     O34 6565   3.774   2.034   8.139
  167PC     O21 6566   3.603   2.079   7.679
  167PC     C21 6567   3.534   2.193   7.655
  167PC     O22 6568   3.582   2.305   7.663
  168MY    H14T 6569   2.771   2.706   6.630
  168MY    C114 6570   2.821   2.713   6.727
  168MY    H14R 6571   2.807   2.814   6.765
  168MY    H14S 6572   2.762   2.651   6.796
  168MY    C113 6573   2.978   2.691   6.732
  168MY    H13R 6574   2.994   2.588   6.699
  168MY    H13S 6575   3.032   2.757   6.662
  168MY    C112 6576   3.036   2.701   6.877
  168MY    H12R 6577   3.018   2.798   6.924
  168MY    H12S 6578   2.988   2.627   6.941
  168MY    C111 6579   3.186   2.670   6.875
  168MY    H11R 6580   3.189   2.567   6.839
  168MY    H11S 6581   3.234   2.748   6.815
  168MY    C110 6582   3.242   2.678   7.015
  168MY    H10R 6583   3.228   2.782   7.045
  168MY    H10S 6584   3.191   2.616   7.088
  168MY     C19 6585   3.398   2.643   7.022
  168MY     H9R 6586   3.459   2.702   6.953
  168MY     H9S 6587   3.428   2.671   7.123
  168MY     C18 6588   3.432   2.501   6.980
  168MY     H8R 6589   3.422   2.488   6.873
  168MY     H8S 6590   3.535   2.484   7.015
  168MY     C17 6591   3.350   2.383   7.040
  168MY     H7R 6592   3.244   2.396   7.018
  168MY     H7S 6593   3.371   2.285   6.996
  168MY     C16 6594   3.357   2.361   7.193
  168MY     H6R 6595   3.457   2.350   7.236
  168MY     H6S 6596   3.310   2.448   7.240
  168MY     C15 6597   3.262   2.252   7.236
  168MY     H5R 6598   3.161   2.267   7.198
  168MY     H5S 6599   3.287   2.155   7.192
  168MY     C14 6600   3.263   2.225   7.389
  168MY     H4R 6601   3.223   2.323   7.417
  168MY     H4S 6602   3.192   2.154   7.432
  168MY     C13 6603   3.397   2.205   7.453
  168MY     H3R 6604   3.452   2.126   7.402
  168MY     H3S 6605   3.450   2.299   7.435
  168MY     C12 6606   3.396   2.178   7.605
  168MY     H2R 6607   3.333   2.254   7.651
  168MY     H2S 6608   3.355   2.078   7.623
  169MY    H14T 6609   4.377   0.341   6.256
  169MY    C114 6610   4.458   0.279   6.218
  169MY    H14R 6611   4.416   0.182   6.192
  169MY    H14S 6612   4.500   0.328   6.130
  169MY    C113 6613   4.571   0.274   6.322
  169MY    H13R 6614   4.654   0.224   6.270
  169MY    H13S 6615   4.596   0.378   6.340
  169MY    C112 6616   4.542   0.207   6.459
  169MY    H12R 6617   4.522   0.100   6.452
  169MY    H12S 6618   4.623   0.214   6.532
  169MY    C111 6619   4.412   0.268   6.525
  169MY    H11R 6620   4.432   0.375   6.534
  169MY    H11S 6621   4.330   0.248   6.456
  169MY    C110 6622   4.369   0.212   6.665
  169MY    H10R 6623   4.268   0.248   6.688
  169MY    H10S 6624   4.347   0.106   6.654
  169MY     C19 6625   4.476   0.262   6.770
  169MY     H9R 6626   4.564   0.198   6.760
  169MY     H9S 6627   4.510   0.361   6.738
  169MY     C18 6628   4.416   0.255   6.914
  169MY     H8R 6629   4.334   0.324   6.934
  169MY     H8S 6630   4.357   0.164   6.927
  169MY     C17 6631   4.523   0.277   7.029
  169MY     H7R 6632   4.604   0.209   7.004
  169MY     H7S 6633   4.560   0.379   7.042
  169MY     C16 6634   4.474   0.230   7.164
  169MY     H6R 6635   4.367   0.247   7.178
  169MY     H6S 6636   4.493   0.123   7.161
  169MY     C15 6637   4.553   0.286   7.291
  169MY     H5R 6638   4.562   0.394   7.275
  169MY     H5S 6639   4.493   0.266   7.380
  169MY     C14 6640   4.694   0.220   7.295
  169MY     H4R 6641   4.684   0.114   7.319
  169MY     H4S 6642   4.743   0.219   7.198
  169MY     C13 6643   4.780   0.285   7.401
  169MY     H3R 6644   4.758   0.257   7.504
  169MY     H3S 6645   4.885   0.266   7.378
  169MY     C12 6646   4.787   0.439   7.405
  169MY     H2R 6647   4.783   0.475   7.302
  169MY     H2S 6648   4.694   0.477   7.448
  170PC     C11 6649   4.897   0.502   7.479
  170PC     O12 6650   4.885   0.552   7.590
  170PC     O11 6651   5.008   0.489   7.401
  170PC      C1 6652   5.133   0.538   7.454
  170PC      HR 6653   5.185   0.563   7.361
  170PC      HS 6654   5.120   0.627   7.516
  170PC      C2 6655   5.206   0.428   7.540
  170PC      HX 6656   5.138   0.397   7.620
  170PC      C3 6657   5.346   0.474   7.596
  170PC      HA 6658   5.378   0.391   7.659
  170PC      HB 6659   5.418   0.484   7.515
  170PC     O31 6660   5.326   0.603   7.667
  170PC     P31 6661   5.288   0.593   7.825
  170PC     O32 6662   5.427   0.584   7.904
  170PC     C31 6663   5.516   0.472   7.896
  170PC     H1A 6664   5.500   0.445   7.792
  170PC     H1B 6665   5.615   0.516   7.913
  170PC     C32 6666   5.478   0.363   7.998
  170PC     H2A 6667   5.370   0.352   7.984
  170PC     H2B 6668   5.520   0.267   7.969
  170PC     N31 6669   5.499   0.389   8.142
  170PC     C33 6670   5.432   0.516   8.184
  170PC     H3A 6671   5.323   0.510   8.182
  170PC     H3B 6672   5.485   0.595   8.130
  170PC     H3C 6673   5.456   0.520   8.290
  170PC     C34 6674   5.644   0.393   8.185
  170PC     H4A 6675   5.708   0.327   8.125
  170PC     H4B 6676   5.640   0.367   8.291
  170PC     H4C 6677   5.689   0.492   8.173
  170PC     C35 6678   5.437   0.271   8.214
  170PC     H5A 6679   5.329   0.277   8.199
  170PC     H5B 6680   5.441   0.269   8.323
  170PC     H5C 6681   5.478   0.180   8.169
  170PC     O33 6682   5.230   0.722   7.858
  170PC     O34 6683   5.216   0.472   7.849
  170PC     O21 6684   5.231   0.331   7.437
  170PC     C21 6685   5.180   0.207   7.437
  170PC     O22 6686   5.124   0.162   7.535
  171MY    H14T 6687   4.501  -0.032   6.148
  171MY    C114 6688   4.471  -0.136   6.160
  171MY    H14R 6689   4.385  -0.152   6.093
  171MY    H14S 6690   4.553  -0.201   6.128
  171MY    C113 6691   4.434  -0.156   6.313
  171MY    H13R 6692   4.395  -0.060   6.347
  171MY    H13S 6693   4.353  -0.227   6.332
  171MY    C112 6694   4.550  -0.176   6.404
  171MY    H12R 6695   4.596  -0.269   6.369
  171MY    H12S 6696   4.613  -0.087   6.397
  171MY    C111 6697   4.501  -0.183   6.548
  171MY    H11R 6698   4.422  -0.115   6.581
  171MY    H11S 6699   4.450  -0.279   6.560
  171MY    C110 6700   4.611  -0.158   6.647
  171MY    H10R 6701   4.670  -0.248   6.664
  171MY    H10S 6702   4.674  -0.076   6.612
  171MY     C19 6703   4.568  -0.125   6.786
  171MY     H9R 6704   4.505  -0.037   6.797
  171MY     H9S 6705   4.498  -0.204   6.815
  171MY     C18 6706   4.684  -0.136   6.886
  171MY     H8R 6707   4.639  -0.119   6.984
  171MY     H8S 6708   4.739  -0.230   6.881
  171MY     C17 6709   4.787  -0.023   6.869
  171MY     H7R 6710   4.845  -0.027   6.777
  171MY     H7S 6711   4.731   0.069   6.884
  171MY     C16 6712   4.899  -0.027   6.976
  171MY     H6R 6713   4.860  -0.022   7.078
  171MY     H6S 6714   4.951  -0.122   6.962
  171MY     C15 6715   5.008   0.083   6.959
  171MY     H5R 6716   5.056   0.080   6.861
  171MY     H5S 6717   4.954   0.177   6.966
  171MY     C14 6718   5.112   0.082   7.076
  171MY     H4R 6719   5.132  -0.020   7.108
  171MY     H4S 6720   5.191   0.134   7.022
  171MY     C13 6721   5.089   0.160   7.207
  171MY     H3R 6722   5.072   0.266   7.186
  171MY     H3S 6723   4.996   0.126   7.253
  171MY     C12 6724   5.205   0.139   7.304
  171MY     H2R 6725   5.207   0.030   7.318
  171MY     H2S 6726   5.299   0.170   7.258
  172MY    H14T 6727   2.515   3.876   7.004
  172MY    C114 6728   2.422   3.919   7.041
  172MY    H14R 6729   2.417   3.903   7.149
  172MY    H14S 6730   2.413   4.027   7.026
  172MY    C113 6731   2.309   3.854   6.967
  172MY    H13R 6732   2.218   3.903   7.005
  172MY    H13S 6733   2.301   3.883   6.862
  172MY    C112 6734   2.294   3.702   6.979
  172MY    H12R 6735   2.369   3.668   6.908
  172MY    H12S 6736   2.322   3.659   7.076
  172MY    C111 6737   2.156   3.642   6.928
  172MY    H11R 6738   2.120   3.676   6.830
  172MY    H11S 6739   2.167   3.537   6.903
  172MY    C110 6740   2.035   3.654   7.031
  172MY    H10R 6741   2.070   3.613   7.126
  172MY    H10S 6742   2.012   3.758   7.056
  172MY     C19 6743   1.908   3.571   6.990
  172MY     H9R 6744   1.864   3.614   6.899
  172MY     H9S 6745   1.935   3.467   6.966
  172MY     C18 6746   1.782   3.571   7.087
  172MY     H8R 6747   1.711   3.499   7.046
  172MY     H8S 6748   1.806   3.516   7.178
  172MY     C17 6749   1.716   3.708   7.116
  172MY     H7R 6750   1.769   3.759   7.197
  172MY     H7S 6751   1.728   3.780   7.034
  172MY     C16 6752   1.569   3.687   7.143
  172MY     H6R 6753   1.514   3.781   7.149
  172MY     H6S 6754   1.520   3.632   7.062
  172MY     C15 6755   1.534   3.595   7.259
  172MY     H5R 6756   1.425   3.585   7.257
  172MY     H5S 6757   1.570   3.494   7.242
  172MY     C14 6758   1.582   3.650   7.393
  172MY     H4R 6759   1.690   3.655   7.403
  172MY     H4S 6760   1.535   3.746   7.418
  172MY     C13 6761   1.525   3.547   7.496
  172MY     H3R 6762   1.416   3.556   7.508
  172MY     H3S 6763   1.563   3.450   7.464
  172MY     C12 6764   1.585   3.570   7.639
  172MY     H2R 6765   1.694   3.562   7.629
  172MY     H2S 6766   1.578   3.677   7.661
  173PC     C11 6767   1.519   3.493   7.748
  173PC     O12 6768   1.443   3.536   7.832
  173PC     O11 6769   1.545   3.361   7.734
  173PC      C1 6770   1.485   3.271   7.833
  173PC      HR 6771   1.533   3.173   7.820
  173PC      HS 6772   1.506   3.317   7.930
  173PC      C2 6773   1.329   3.263   7.815
  173PC      HX 6774   1.271   3.355   7.827
  173PC      C3 6775   1.275   3.157   7.914
  173PC      HA 6776   1.171   3.135   7.888
  173PC      HB 6777   1.325   3.062   7.892
  173PC     O31 6778   1.279   3.206   8.044
  173PC     P31 6779   1.255   3.107   8.167
  173PC     O32 6780   1.404   3.068   8.219
  173PC     C31 6781   1.478   3.149   8.306
  173PC     H1A 6782   1.411   3.190   8.381
  173PC     H1B 6783   1.557   3.082   8.341
  173PC     C32 6784   1.554   3.258   8.229
  173PC     H2A 6785   1.612   3.216   8.147
  173PC     H2B 6786   1.487   3.330   8.182
  173PC     N31 6787   1.652   3.348   8.300
  173PC     C33 6788   1.751   3.264   8.374
  173PC     H3A 6789   1.702   3.208   8.453
  173PC     H3B 6790   1.837   3.315   8.416
  173PC     H3C 6791   1.798   3.199   8.300
  173PC     C34 6792   1.589   3.445   8.391
  173PC     H4A 6793   1.662   3.522   8.419
  173PC     H4B 6794   1.553   3.393   8.480
  173PC     H4C 6795   1.506   3.503   8.350
  173PC     C35 6796   1.733   3.425   8.199
  173PC     H5A 6797   1.666   3.478   8.131
  173PC     H5B 6798   1.796   3.361   8.137
  173PC     H5C 6799   1.791   3.503   8.248
  173PC     O33 6800   1.185   3.166   8.283
  173PC     O34 6801   1.194   2.987   8.109
  173PC     O21 6802   1.300   3.212   7.681
  173PC     C21 6803   1.235   3.296   7.587
  173PC     O22 6804   1.216   3.415   7.604
  174MY    H14T 6805   1.644   3.596   6.298
  174MY    C114 6806   1.744   3.601   6.342
  174MY    H14R 6807   1.819   3.564   6.272
  174MY    H14S 6808   1.766   3.703   6.375
  174MY    C113 6809   1.746   3.509   6.467
  174MY    H13R 6810   1.737   3.403   6.441
  174MY    H13S 6811   1.841   3.532   6.517
  174MY    C112 6812   1.628   3.549   6.556
  174MY    H12R 6813   1.619   3.656   6.577
  174MY    H12S 6814   1.537   3.506   6.515
  174MY    C111 6815   1.655   3.484   6.695
  174MY    H11R 6816   1.679   3.379   6.680
  174MY    H11S 6817   1.741   3.533   6.741
  174MY    C110 6818   1.535   3.491   6.786
  174MY    H10R 6819   1.577   3.511   6.885
  174MY    H10S 6820   1.484   3.585   6.765
  174MY     C19 6821   1.443   3.360   6.804
  174MY     H9R 6822   1.360   3.388   6.870
  174MY     H9S 6823   1.396   3.331   6.710
  174MY     C18 6824   1.527   3.236   6.840
  174MY     H8R 6825   1.596   3.222   6.757
  174MY     H8S 6826   1.587   3.264   6.926
  174MY     C17 6827   1.451   3.114   6.883
  174MY     H7R 6828   1.395   3.069   6.800
  174MY     H7S 6829   1.530   3.047   6.916
  174MY     C16 6830   1.350   3.143   6.998
  174MY     H6R 6831   1.284   3.227   6.979
  174MY     H6S 6832   1.292   3.051   6.993
  174MY     C15 6833   1.406   3.152   7.143
  174MY     H5R 6834   1.475   3.068   7.154
  174MY     H5S 6835   1.465   3.243   7.152
  174MY     C14 6836   1.290   3.151   7.247
  174MY     H4R 6837   1.213   3.217   7.207
  174MY     H4S 6838   1.252   3.049   7.258
  174MY     C13 6839   1.333   3.205   7.382
  174MY     H3R 6840   1.385   3.138   7.451
  174MY     H3S 6841   1.382   3.302   7.378
  174MY     C12 6842   1.200   3.222   7.466
  174MY     H2R 6843   1.129   3.278   7.405
  174MY     H2S 6844   1.168   3.121   7.489
  175MY    H14T 6845   1.877   5.092   6.181
  175MY    C114 6846   1.807   5.013   6.210
  175MY    H14R 6847   1.720   5.022   6.145
  175MY    H14S 6848   1.850   4.914   6.197
  175MY    C113 6849   1.755   5.036   6.352
  175MY    H13R 6850   1.688   5.122   6.362
  175MY    H13S 6851   1.695   4.951   6.387
  175MY    C112 6852   1.870   5.044   6.452
  175MY    H12R 6853   1.917   4.946   6.460
  175MY    H12S 6854   1.943   5.121   6.426
  175MY    C111 6855   1.821   5.081   6.596
  175MY    H11R 6856   1.785   5.183   6.590
  175MY    H11S 6857   1.740   5.016   6.630
  175MY    C110 6858   1.946   5.066   6.689
  175MY    H10R 6859   1.959   4.959   6.706
  175MY    H10S 6860   2.037   5.105   6.643
  175MY     C19 6861   1.932   5.130   6.828
  175MY     H9R 6862   2.021   5.098   6.883
  175MY     H9S 6863   1.939   5.238   6.822
  175MY     C18 6864   1.802   5.080   6.889
  175MY     H8R 6865   1.716   5.119   6.834
  175MY     H8S 6866   1.792   4.972   6.882
  175MY     C17 6867   1.796   5.127   7.029
  175MY     H7R 6868   1.895   5.126   7.075
  175MY     H7S 6869   1.754   5.227   7.030
  175MY     C16 6870   1.695   5.036   7.100
  175MY     H6R 6871   1.616   4.997   7.036
  175MY     H6S 6872   1.751   4.946   7.126
  175MY     C15 6873   1.636   5.081   7.235
  175MY     H5R 6874   1.586   5.008   7.299
  175MY     H5S 6875   1.708   5.147   7.283
  175MY     C14 6876   1.516   5.176   7.199
  175MY     H4R 6877   1.546   5.249   7.124
  175MY     H4S 6878   1.431   5.121   7.158
  175MY     C13 6879   1.447   5.243   7.323
  175MY     H3R 6880   1.350   5.279   7.291
  175MY     H3S 6881   1.436   5.162   7.396
  175MY     C12 6882   1.522   5.356   7.388
  175MY     H2R 6883   1.618   5.316   7.421
  175MY     H2S 6884   1.540   5.440   7.321
  176PC     C11 6885   1.456   5.406   7.514
  176PC     O12 6886   1.467   5.355   7.619
  176PC     O11 6887   1.368   5.507   7.487
  176PC      C1 6888   1.298   5.579   7.591
  176PC      HR 6889   1.197   5.611   7.560
  176PC      HS 6890   1.296   5.511   7.676
  176PC      C2 6891   1.373   5.713   7.625
  176PC      HX 6892   1.468   5.689   7.673
  176PC      C3 6893   1.289   5.803   7.715
  176PC      HA 6894   1.338   5.892   7.755
  176PC      HB 6895   1.209   5.839   7.649
  176PC     O31 6896   1.224   5.726   7.816
  176PC     P31 6897   1.276   5.724   7.964
  176PC     O32 6898   1.403   5.627   7.952
  176PC     C31 6899   1.536   5.687   7.955
  176PC     H1A 6900   1.540   5.761   7.874
  176PC     H1B 6901   1.550   5.732   8.053
  176PC     C32 6902   1.650   5.578   7.948
  176PC     H2A 6903   1.635   5.514   7.861
  176PC     H2B 6904   1.744   5.632   7.961
  176PC     N31 6905   1.654   5.475   8.058
  176PC     C33 6906   1.770   5.390   8.029
  176PC     H3A 6907   1.864   5.443   8.016
  176PC     H3B 6908   1.746   5.340   7.935
  176PC     H3C 6909   1.774   5.322   8.114
  176PC     C34 6910   1.532   5.396   8.078
  176PC     H4A 6911   1.557   5.300   8.123
  176PC     H4B 6912   1.489   5.382   7.979
  176PC     H4C 6913   1.472   5.460   8.144
  176PC     C35 6914   1.683   5.546   8.190
  176PC     H5A 6915   1.755   5.620   8.155
  176PC     H5B 6916   1.717   5.470   8.260
  176PC     H5C 6917   1.598   5.604   8.226
  176PC     O33 6918   1.320   5.858   8.003
  176PC     O34 6919   1.170   5.656   8.053
  176PC     O21 6920   1.386   5.800   7.509
  176PC     C21 6921   1.501   5.777   7.433
  176PC     O22 6922   1.603   5.715   7.463
  177MY    H14T 6923   1.664   4.779   6.749
  177MY    C114 6924   1.596   4.812   6.670
  177MY    H14R 6925   1.654   4.839   6.581
  177MY    H14S 6926   1.535   4.725   6.645
  177MY    C113 6927   1.500   4.925   6.727
  177MY    H13R 6928   1.475   4.902   6.831
  177MY    H13S 6929   1.550   5.021   6.745
  177MY    C112 6930   1.372   4.971   6.650
  177MY    H12R 6931   1.396   5.010   6.551
  177MY    H12S 6932   1.312   4.880   6.645
  177MY    C111 6933   1.287   5.084   6.715
  177MY    H11R 6934   1.358   5.166   6.722
  177MY    H11S 6935   1.199   5.111   6.656
  177MY    C110 6936   1.243   5.054   6.863
  177MY    H10R 6937   1.194   4.956   6.867
  177MY    H10S 6938   1.342   5.046   6.907
  177MY     C19 6939   1.156   5.164   6.916
  177MY     H9R 6940   1.061   5.165   6.863
  177MY     H9S 6941   1.134   5.144   7.021
  177MY     C18 6942   1.223   5.300   6.903
  177MY     H8R 6943   1.331   5.301   6.918
  177MY     H8S 6944   1.210   5.339   6.802
  177MY     C17 6945   1.169   5.400   7.014
  177MY     H7R 6946   1.061   5.414   7.004
  177MY     H7S 6947   1.186   5.367   7.116
  177MY     C16 6948   1.231   5.534   7.006
  177MY     H6R 6949   1.330   5.505   7.041
  177MY     H6S 6950   1.232   5.571   6.903
  177MY     C15 6951   1.174   5.639   7.105
  177MY     H5R 6952   1.090   5.683   7.049
  177MY     H5S 6953   1.131   5.582   7.187
  177MY     C14 6954   1.277   5.748   7.154
  177MY     H4R 6955   1.281   5.819   7.071
  177MY     H4S 6956   1.231   5.808   7.233
  177MY     C13 6957   1.421   5.710   7.198
  177MY     H3R 6958   1.426   5.620   7.260
  177MY     H3S 6959   1.483   5.695   7.110
  177MY     C12 6960   1.487   5.819   7.284
  177MY     H2R 6961   1.592   5.829   7.256
  177MY     H2S 6962   1.442   5.917   7.269
  178MY    H14T 6963   5.817   5.582   6.352
  178MY    C114 6964   5.831   5.591   6.244
  178MY    H14R 6965   5.939   5.596   6.227
  178MY    H14S 6966   5.794   5.504   6.190
  178MY    C113 6967   5.753   5.721   6.190
  178MY    H13R 6968   5.754   5.733   6.081
  178MY    H13S 6969   5.653   5.707   6.231
  178MY    C112 6970   5.810   5.858   6.236
  178MY    H12R 6971   5.911   5.865   6.193
  178MY    H12S 6972   5.750   5.941   6.199
  178MY    C111 6973   5.825   5.877   6.389
  178MY    H11R 6974   5.899   5.803   6.421
  178MY    H11S 6975   5.856   5.981   6.402
  178MY    C110 6976   5.699   5.858   6.472
  178MY    H10R 6977   5.614   5.901   6.419
  178MY    H10S 6978   5.677   5.751   6.484
  178MY     C19 6979   5.708   5.913   6.613
  178MY     H9R 6980   5.710   6.022   6.604
  178MY     H9S 6981   5.614   5.898   6.668
  178MY     C18 6982   5.836   5.875   6.685
  178MY     H8R 6983   5.841   5.767   6.669
  178MY     H8S 6984   5.929   5.913   6.642
  178MY     C17 6985   5.848   5.916   6.834
  178MY     H7R 6986   5.853   6.025   6.832
  178MY     H7S 6987   5.756   5.884   6.885
  178MY     C16 6988   5.981   5.879   6.900
  178MY     H6R 6989   6.008   5.776   6.875
  178MY     H6S 6990   6.046   5.948   6.847
  178MY     C15 6991   5.995   5.910   7.051
  178MY     H5R 6992   6.094   5.873   7.075
  178MY     H5S 6993   5.991   6.017   7.073
  178MY     C14 6994   5.890   5.823   7.129
  178MY     H4R 6995   5.788   5.845   7.098
  178MY     H4S 6996   5.905   5.718   7.103
  178MY     C13 6997   5.897   5.831   7.277
  178MY     H3R 6998   5.996   5.810   7.317
  178MY     H3S 6999   5.870   5.933   7.309
  178MY     C12 7000   5.796   5.732   7.344
  178MY     H2R 7001   5.695   5.747   7.304
  178MY     H2S 7002   5.837   5.632   7.328
  179PC     C11 7003   5.777   5.748   7.491
  179PC     O12 7004   5.864   5.765   7.574
  179PC     O11 7005   5.649   5.741   7.524
  179PC      C1 7006   5.600   5.765   7.664
  179PC      HR 7007   5.634   5.689   7.736
  179PC      HS 7008   5.623   5.869   7.691
  179PC      C2 7009   5.446   5.774   7.659
  179PC      HX 7010   5.408   5.860   7.604
  179PC      C3 7011   5.383   5.767   7.797
  179PC      HA 7012   5.278   5.797   7.794
  179PC      HB 7013   5.384   5.664   7.833
  179PC     O31 7014   5.462   5.836   7.896
  179PC     P31 7015   5.471   5.993   7.906
  179PC     O32 7016   5.329   6.029   7.972
  179PC     C31 7017   5.208   6.049   7.897
  179PC     H1A 7018   5.195   6.153   7.863
  179PC     H1B 7019   5.204   5.981   7.811
  179PC     C32 7020   5.106   5.995   8.003
  179PC     H2A 7021   5.024   5.952   7.945
  179PC     H2B 7022   5.161   5.914   8.051
  179PC     N31 7023   5.054   6.085   8.108
  179PC     C33 7024   4.951   6.017   8.199
  179PC     H3A 7025   4.912   6.104   8.252
  179PC     H3B 7026   5.013   5.950   8.260
  179PC     H3C 7027   4.866   5.973   8.146
  179PC     C34 7028   4.996   6.211   8.055
  179PC     H4A 7029   5.067   6.275   8.003
  179PC     H4B 7030   4.954   6.272   8.135
  179PC     H4C 7031   4.907   6.188   7.995
  179PC     C35 7032   5.163   6.124   8.198
  179PC     H5A 7033   5.183   6.036   8.260
  179PC     H5B 7034   5.127   6.205   8.261
  179PC     H5C 7035   5.247   6.159   8.138
  179PC     O33 7036   5.574   6.021   8.006
  179PC     O34 7037   5.471   6.058   7.770
  179PC     O21 7038   5.395   5.664   7.584
  179PC     C21 7039   5.267   5.666   7.552
  179PC     O22 7040   5.179   5.751   7.582
  180MY    H14T 7041   4.563   5.022   6.221
  180MY    C114 7042   4.564   4.993   6.326
  180MY    H14R 7043   4.464   4.958   6.354
  180MY    H14S 7044   4.634   4.910   6.336
  180MY    C113 7045   4.614   5.109   6.415
  180MY    H13R 7046   4.705   5.148   6.369
  180MY    H13S 7047   4.540   5.190   6.412
  180MY    C112 7048   4.639   5.070   6.561
  180MY    H12R 7049   4.540   5.047   6.601
  180MY    H12S 7050   4.696   4.980   6.586
  180MY    C111 7051   4.695   5.184   6.643
  180MY    H11R 7052   4.798   5.186   6.606
  180MY    H11S 7053   4.637   5.273   6.617
  180MY    C110 7054   4.691   5.152   6.794
  180MY    H10R 7055   4.721   5.048   6.807
  180MY    H10S 7056   4.584   5.155   6.817
  180MY     C19 7057   4.769   5.252   6.879
  180MY     H9R 7058   4.872   5.235   6.847
  180MY     H9S 7059   4.725   5.349   6.855
  180MY     C18 7060   4.759   5.230   7.034
  180MY     H8R 7061   4.656   5.224   7.069
  180MY     H8S 7062   4.817   5.140   7.056
  180MY     C17 7063   4.824   5.341   7.123
  180MY     H7R 7064   4.928   5.368   7.105
  180MY     H7S 7065   4.775   5.438   7.109
  180MY     C16 7066   4.799   5.306   7.271
  180MY     H6R 7067   4.698   5.272   7.295
  180MY     H6S 7068   4.859   5.219   7.297
  180MY     C15 7069   4.849   5.412   7.368
  180MY     H5R 7070   4.812   5.510   7.339
  180MY     H5S 7071   4.808   5.392   7.467
  180MY     C14 7072   5.009   5.419   7.382
  180MY     H4R 7073   5.033   5.329   7.440
  180MY     H4S 7074   5.056   5.400   7.285
  180MY     C13 7075   5.061   5.539   7.456
  180MY     H3R 7076   5.033   5.629   7.401
  180MY     H3S 7077   4.998   5.544   7.544
  180MY     C12 7078   5.218   5.539   7.480
  180MY     H2R 7079   5.251   5.449   7.531
  180MY     H2S 7080   5.261   5.538   7.380
  181MY    H14T 7081   5.645  -0.041   6.039
  181MY    C114 7082   5.615   0.049   6.094
  181MY    H14R 7083   5.658   0.138   6.048
  181MY    H14S 7084   5.508   0.054   6.073
  181MY    C113 7085   5.639   0.038   6.248
  181MY    H13R 7086   5.554   0.079   6.302
  181MY    H13S 7087   5.648  -0.067   6.278
  181MY    C112 7088   5.768   0.111   6.295
  181MY    H12R 7089   5.851   0.070   6.236
  181MY    H12S 7090   5.756   0.217   6.275
  181MY    C111 7091   5.803   0.089   6.447
  181MY    H11R 7092   5.716   0.114   6.508
  181MY    H11S 7093   5.810  -0.019   6.462
  181MY    C110 7094   5.933   0.146   6.484
  181MY    H10R 7095   5.961   0.116   6.585
  181MY    H10S 7096   6.007   0.098   6.419
  181MY     C19 7097   5.947   0.295   6.489
  181MY     H9R 7098   6.044   0.314   6.537
  181MY     H9S 7099   5.944   0.342   6.391
  181MY     C18 7100   5.847   0.367   6.579
  181MY     H8R 7101   5.755   0.372   6.521
  181MY     H8S 7102   5.813   0.324   6.674
  181MY     C17 7103   5.896   0.516   6.598
  181MY     H7R 7104   5.991   0.509   6.651
  181MY     H7S 7105   5.902   0.559   6.498
  181MY     C16 7106   5.794   0.609   6.663
  181MY     H6R 7107   5.828   0.713   6.654
  181MY     H6S 7108   5.707   0.592   6.600
  181MY     C15 7109   5.761   0.576   6.809
  181MY     H5R 7110   5.674   0.630   6.847
  181MY     H5S 7111   5.729   0.473   6.822
  181MY     C14 7112   5.875   0.598   6.909
  181MY     H4R 7113   5.955   0.526   6.891
  181MY     H4S 7114   5.915   0.697   6.887
  181MY     C13 7115   5.843   0.600   7.056
  181MY     H3R 7116   5.927   0.645   7.111
  181MY     H3S 7117   5.761   0.668   7.082
  181MY     C12 7118   5.821   0.461   7.126
  181MY     H2R 7119   5.743   0.411   7.068
  181MY     H2S 7120   5.909   0.400   7.105
  182PC     C11 7121   5.793   0.467   7.272
  182PC     O12 7122   5.757   0.566   7.330
  182PC     O11 7123   5.808   0.347   7.336
  182PC      C1 7124   5.755   0.333   7.472
  182PC      HR 7125   5.801   0.414   7.531
  182PC      HS 7126   5.650   0.365   7.465
  182PC      C2 7127   5.770   0.189   7.534
  182PC      HX 7128   5.691   0.179   7.609
  182PC      C3 7129   5.906   0.169   7.611
  182PC      HA 7130   5.913   0.063   7.637
  182PC      HB 7131   5.985   0.201   7.542
  182PC     O31 7132   5.911   0.264   7.724
  182PC     P31 7133   5.846   0.232   7.866
  182PC     O32 7134   5.961   0.153   7.935
  182PC     C31 7135   5.983   0.017   7.925
  182PC     H1A 7136   5.894  -0.036   7.961
  182PC     H1B 7137   6.008  -0.005   7.821
  182PC     C32 7138   6.098  -0.017   8.025
  182PC     H2A 7139   6.176   0.022   7.959
  182PC     H2B 7140   6.103   0.031   8.123
  182PC     N31 7141   6.130  -0.159   8.051
  182PC     C33 7142   6.263  -0.165   8.107
  182PC     H3A 7143   6.288  -0.271   8.113
  182PC     H3B 7144   6.258  -0.125   8.208
  182PC     H3C 7145   6.331  -0.113   8.038
  182PC     C34 7146   6.128  -0.241   7.931
  182PC     H4A 7147   6.176  -0.335   7.956
  182PC     H4B 7148   6.175  -0.187   7.848
  182PC     H4C 7149   6.026  -0.267   7.903
  182PC     C35 7150   6.027  -0.208   8.149
  182PC     H5A 7151   5.937  -0.157   8.115
  182PC     H5B 7152   6.066  -0.181   8.248
  182PC     H5C 7153   6.028  -0.315   8.129
  182PC     O33 7154   5.829   0.357   7.935
  182PC     O34 7155   5.728   0.140   7.840
  182PC     O21 7156   5.762   0.086   7.436
  182PC     C21 7157   5.635   0.062   7.395
  182PC     O22 7158   5.530   0.123   7.429
  183MY    H14T 7159   5.421  -0.388   5.869
  183MY    C114 7160   5.405  -0.285   5.901
  183MY    H14R 7161   5.461  -0.223   5.830
  183MY    H14S 7162   5.301  -0.252   5.887
  183MY    C113 7163   5.439  -0.267   6.046
  183MY    H13R 7164   5.527  -0.329   6.068
  183MY    H13S 7165   5.461  -0.167   6.084
  183MY    C112 7166   5.322  -0.325   6.136
  183MY    H12R 7167   5.224  -0.291   6.101
  183MY    H12S 7168   5.317  -0.433   6.124
  183MY    C111 7169   5.347  -0.285   6.282
  183MY    H11R 7170   5.308  -0.366   6.344
  183MY    H11S 7171   5.455  -0.292   6.299
  183MY    C110 7172   5.277  -0.150   6.317
  183MY    H10R 7173   5.335  -0.068   6.274
  183MY    H10S 7174   5.176  -0.146   6.277
  183MY     C19 7175   5.260  -0.133   6.475
  183MY     H9R 7176   5.228  -0.030   6.487
  183MY     H9S 7177   5.182  -0.199   6.514
  183MY     C18 7178   5.385  -0.135   6.564
  183MY     H8R 7179   5.432  -0.234   6.557
  183MY     H8S 7180   5.462  -0.071   6.521
  183MY     C17 7181   5.360  -0.111   6.716
  183MY     H7R 7182   5.305  -0.017   6.723
  183MY     H7S 7183   5.300  -0.194   6.755
  183MY     C16 7184   5.494  -0.105   6.791
  183MY     H6R 7185   5.518  -0.211   6.807
  183MY     H6S 7186   5.577  -0.057   6.739
  183MY     C15 7187   5.477  -0.035   6.930
  183MY     H5R 7188   5.461   0.072   6.917
  183MY     H5S 7189   5.385  -0.076   6.971
  183MY     C14 7190   5.588  -0.065   7.034
  183MY     H4R 7191   5.612  -0.172   7.030
  183MY     H4S 7192   5.678  -0.011   7.006
  183MY     C13 7193   5.548  -0.004   7.172
  183MY     H3R 7194   5.543   0.105   7.164
  183MY     H3S 7195   5.452  -0.046   7.203
  183MY     C12 7196   5.650  -0.035   7.284
  183MY     H2R 7197   5.616  -0.134   7.314
  183MY     H2S 7198   5.748  -0.052   7.237
  184MY    H14T 7199   3.217   0.987   7.358
  184MY    C114 7200   3.114   1.003   7.324
  184MY    H14R 7201   3.069   0.931   7.394
  184MY    H14S 7202   3.091   1.108   7.342
  184MY    C113 7203   3.091   0.967   7.181
  184MY    H13R 7204   2.989   0.928   7.176
  184MY    H13S 7205   3.098   1.056   7.118
  184MY    C112 7206   3.194   0.870   7.121
  184MY    H12R 7207   3.290   0.921   7.114
  184MY    H12S 7208   3.208   0.792   7.197
  184MY    C111 7209   3.151   0.799   6.985
  184MY    H11R 7210   3.127   0.877   6.913
  184MY    H11S 7211   3.227   0.737   6.937
  184MY    C110 7212   3.016   0.719   6.995
  184MY    H10R 7213   3.021   0.644   7.073
  184MY    H10S 7214   2.937   0.793   7.015
  184MY     C19 7215   2.959   0.658   6.863
  184MY     H9R 7216   2.967   0.736   6.787
  184MY     H9S 7217   3.024   0.575   6.837
  184MY     C18 7218   2.809   0.610   6.866
  184MY     H8R 7219   2.747   0.694   6.901
  184MY     H8S 7220   2.778   0.581   6.766
  184MY     C17 7221   2.797   0.481   6.963
  184MY     H7R 7222   2.860   0.401   6.922
  184MY     H7S 7223   2.846   0.504   7.057
  184MY     C16 7224   2.653   0.442   6.986
  184MY     H6R 7225   2.604   0.437   6.888
  184MY     H6S 7226   2.660   0.342   7.029
  184MY     C15 7227   2.585   0.538   7.078
  184MY     H5R 7228   2.654   0.565   7.158
  184MY     H5S 7229   2.568   0.635   7.030
  184MY     C14 7230   2.458   0.485   7.147
  184MY     H4R 7231   2.404   0.416   7.081
  184MY     H4S 7232   2.492   0.423   7.230
  184MY     C13 7233   2.370   0.595   7.200
  184MY     H3R 7234   2.419   0.679   7.249
  184MY     H3S 7235   2.330   0.633   7.106
  184MY     C12 7236   2.252   0.544   7.287
  184MY     H2R 7237   2.173   0.619   7.279
  184MY     H2S 7238   2.210   0.448   7.256
  185PC     C11 7239   2.295   0.524   7.436
  185PC     O12 7240   2.259   0.604   7.521
  185PC     O11 7241   2.365   0.411   7.459
  185PC      C1 7242   2.425   0.405   7.591
  185PC      HR 7243   2.488   0.493   7.609
  185PC      HS 7244   2.349   0.406   7.669
  185PC      C2 7245   2.509   0.275   7.598
  185PC      HX 7246   2.441   0.191   7.583
  185PC      C3 7247   2.583   0.259   7.733
  185PC      HA 7248   2.652   0.174   7.732
  185PC      HB 7249   2.640   0.348   7.759
  185PC     O31 7250   2.495   0.220   7.841
  185PC     P31 7251   2.538   0.202   7.996
  185PC     O32 7252   2.592   0.051   8.003
  185PC     C31 7253   2.501  -0.059   7.997
  185PC     H1A 7254   2.408  -0.019   7.958
  185PC     H1B 7255   2.540  -0.132   7.926
  185PC     C32 7256   2.483  -0.124   8.142
  185PC     H2A 7257   2.441  -0.048   8.207
  185PC     H2B 7258   2.416  -0.211   8.149
  185PC     N31 7259   2.600  -0.177   8.226
  185PC     C33 7260   2.678  -0.271   8.143
  185PC     H3A 7261   2.733  -0.218   8.065
  185PC     H3B 7262   2.617  -0.338   8.081
  185PC     H3C 7263   2.753  -0.330   8.196
  185PC     C34 7264   2.537  -0.242   8.351
  185PC     H4A 7265   2.479  -0.329   8.321
  185PC     H4B 7266   2.479  -0.163   8.399
  185PC     H4C 7267   2.617  -0.263   8.422
  185PC     C35 7268   2.696  -0.069   8.272
  185PC     H5A 7269   2.650  -0.019   8.358
  185PC     H5B 7270   2.726  -0.010   8.185
  185PC     H5C 7271   2.782  -0.121   8.315
  185PC     O33 7272   2.656   0.288   8.016
  185PC     O34 7273   2.425   0.210   8.092
  185PC     O21 7274   2.609   0.270   7.497
  185PC     C21 7275   2.637   0.151   7.430
  185PC     O22 7276   2.581   0.039   7.457
  186MY    H14T 7277   3.901  -0.051   6.785
  186MY    C114 7278   3.807   0.003   6.770
  186MY    H14R 7279   3.821   0.104   6.810
  186MY    H14S 7280   3.787   0.009   6.663
  186MY    C113 7281   3.688  -0.060   6.840
  186MY    H13R 7282   3.709  -0.069   6.947
  186MY    H13S 7283   3.604   0.009   6.834
  186MY    C112 7284   3.651  -0.200   6.783
  186MY    H12R 7285   3.631  -0.188   6.676
  186MY    H12S 7286   3.737  -0.262   6.809
  186MY    C111 7287   3.536  -0.260   6.861
  186MY    H11R 7288   3.577  -0.304   6.953
  186MY    H11S 7289   3.484  -0.171   6.897
  186MY    C110 7290   3.436  -0.350   6.790
  186MY    H10R 7291   3.434  -0.321   6.684
  186MY    H10S 7292   3.495  -0.441   6.783
  186MY     C19 7293   3.298  -0.372   6.858
  186MY     H9R 7294   3.251  -0.451   6.800
  186MY     H9S 7295   3.308  -0.409   6.961
  186MY     C18 7296   3.203  -0.252   6.853
  186MY     H8R 7297   3.264  -0.169   6.889
  186MY     H8S 7298   3.182  -0.223   6.750
  186MY     C17 7299   3.074  -0.258   6.937
  186MY     H7R 7300   2.993  -0.303   6.879
  186MY     H7S 7301   3.075  -0.321   7.027
  186MY     C16 7302   3.028  -0.116   6.989
  186MY     H6R 7303   3.110  -0.071   7.045
  186MY     H6S 7304   2.999  -0.059   6.900
  186MY     C15 7305   2.907  -0.116   7.087
  186MY     H5R 7306   2.821  -0.156   7.032
  186MY     H5S 7307   2.940  -0.187   7.163
  186MY     C14 7308   2.876   0.020   7.147
  186MY     H4R 7309   2.966   0.059   7.195
  186MY     H4S 7310   2.869   0.085   7.060
  186MY     C13 7311   2.759   0.023   7.249
  186MY     H3R 7312   2.664  -0.023   7.223
  186MY     H3S 7313   2.794  -0.040   7.332
  186MY     C12 7314   2.732   0.161   7.315
  186MY     H2R 7315   2.830   0.200   7.345
  186MY     H2S 7316   2.695   0.243   7.254
  187MY    H14T 7317   3.379   5.050   5.848
  187MY    C114 7318   3.470   5.103   5.877
  187MY    H14R 7319   3.552   5.088   5.807
  187MY    H14S 7320   3.453   5.210   5.893
  187MY    C113 7321   3.511   5.046   6.008
  187MY    H13R 7322   3.532   4.939   6.003
  187MY    H13S 7323   3.600   5.091   6.054
  187MY    C112 7324   3.403   5.074   6.100
  187MY    H12R 7325   3.388   5.182   6.109
  187MY    H12S 7326   3.318   5.026   6.052
  187MY    C111 7327   3.434   5.016   6.247
  187MY    H11R 7328   3.463   4.911   6.236
  187MY    H11S 7329   3.525   5.067   6.281
  187MY    C110 7330   3.317   5.032   6.347
  187MY    H10R 7331   3.288   5.137   6.355
  187MY    H10S 7332   3.230   4.981   6.304
  187MY     C19 7333   3.354   4.977   6.487
  187MY     H9R 7334   3.392   4.875   6.480
  187MY     H9S 7335   3.427   5.036   6.544
  187MY     C18 7336   3.229   4.961   6.582
  187MY     H8R 7337   3.144   4.914   6.531
  187MY     H8S 7338   3.269   4.887   6.650
  187MY     C17 7339   3.209   5.101   6.653
  187MY     H7R 7340   3.217   5.170   6.569
  187MY     H7S 7341   3.109   5.098   6.697
  187MY     C16 7342   3.297   5.134   6.779
  187MY     H6R 7343   3.404   5.147   6.759
  187MY     H6S 7344   3.277   5.234   6.817
  187MY     C15 7345   3.268   5.046   6.904
  187MY     H5R 7346   3.160   5.041   6.917
  187MY     H5S 7347   3.304   4.945   6.883
  187MY     C14 7348   3.333   5.090   7.028
  187MY     H4R 7349   3.440   5.085   7.011
  187MY     H4S 7350   3.299   5.193   7.040
  187MY     C13 7351   3.310   5.004   7.157
  187MY     H3R 7352   3.301   4.897   7.137
  187MY     H3S 7353   3.397   5.017   7.222
  187MY     C12 7354   3.177   5.040   7.223
  187MY     H2R 7355   3.103   5.065   7.147
  187MY     H2S 7356   3.143   4.957   7.285
  188PC     C11 7357   3.201   5.158   7.321
  188PC     O12 7358   3.163   5.267   7.292
  188PC     O11 7359   3.263   5.119   7.436
  188PC      C1 7360   3.262   5.209   7.553
  188PC      HR 7361   3.196   5.295   7.540
  188PC      HS 7362   3.223   5.155   7.640
  188PC      C2 7363   3.404   5.257   7.588
  188PC      HX 7364   3.468   5.170   7.605
  188PC      C3 7365   3.400   5.350   7.713
  188PC      HA 7366   3.361   5.449   7.688
  188PC      HB 7367   3.328   5.308   7.784
  188PC     O31 7368   3.532   5.376   7.773
  188PC     P31 7369   3.612   5.268   7.853
  188PC     O32 7370   3.662   5.161   7.740
  188PC     C31 7371   3.799   5.151   7.710
  188PC     H1A 7372   3.809   5.181   7.605
  188PC     H1B 7373   3.859   5.212   7.778
  188PC     C32 7374   3.834   4.999   7.723
  188PC     H2A 7375   3.755   4.938   7.679
  188PC     H2B 7376   3.935   4.978   7.690
  188PC     N31 7377   3.837   4.939   7.861
  188PC     C33 7378   3.909   4.816   7.853
  188PC     H3A 7379   4.015   4.842   7.847
  188PC     H3B 7380   3.878   4.762   7.764
  188PC     H3C 7381   3.886   4.758   7.943
  188PC     C34 7382   3.697   4.902   7.912
  188PC     H4A 7383   3.702   4.844   8.003
  188PC     H4B 7384   3.648   4.851   7.829
  188PC     H4C 7385   3.643   4.997   7.923
  188PC     C35 7386   3.896   5.022   7.969
  188PC     H5A 7387   3.998   5.042   7.937
  188PC     H5B 7388   3.893   4.962   8.060
  188PC     H5C 7389   3.836   5.113   7.967
  188PC     O33 7390   3.723   5.339   7.918
  188PC     O34 7391   3.512   5.195   7.934
  188PC     O21 7392   3.466   5.342   7.491
  188PC     C21 7393   3.568   5.297   7.421
  188PC     O22 7394   3.603   5.178   7.414
  189MY    H14T 7395   2.904   5.379   6.157
  189MY    C114 7396   2.973   5.327   6.091
  189MY    H14R 7397   2.936   5.226   6.071
  189MY    H14S 7398   2.979   5.371   5.991
  189MY    C113 7399   3.106   5.315   6.160
  189MY    H13R 7400   3.098   5.285   6.264
  189MY    H13S 7401   3.169   5.236   6.118
  189MY    C112 7402   3.189   5.445   6.155
  189MY    H12R 7403   3.231   5.462   6.056
  189MY    H12S 7404   3.130   5.535   6.171
  189MY    C111 7405   3.299   5.453   6.264
  189MY    H11R 7406   3.371   5.371   6.248
  189MY    H11S 7407   3.357   5.543   6.246
  189MY    C110 7408   3.260   5.453   6.414
  189MY    H10R 7409   3.201   5.543   6.432
  189MY    H10S 7410   3.189   5.372   6.433
  189MY     C19 7411   3.393   5.459   6.495
  189MY     H9R 7412   3.452   5.369   6.478
  189MY     H9S 7413   3.448   5.545   6.456
  189MY     C18 7414   3.361   5.477   6.648
  189MY     H8R 7415   3.305   5.570   6.657
  189MY     H8S 7416   3.293   5.400   6.685
  189MY     C17 7417   3.490   5.484   6.739
  189MY     H7R 7418   3.559   5.401   6.723
  189MY     H7S 7419   3.548   5.571   6.709
  189MY     C16 7420   3.474   5.488   6.895
  189MY     H6R 7421   3.405   5.567   6.925
  189MY     H6S 7422   3.432   5.394   6.933
  189MY     C15 7423   3.615   5.504   6.953
  189MY     H5R 7424   3.677   5.417   6.930
  189MY     H5S 7425   3.660   5.598   6.923
  189MY     C14 7426   3.621   5.517   7.102
  189MY     H4R 7427   3.724   5.544   7.128
  189MY     H4S 7428   3.564   5.602   7.139
  189MY     C13 7429   3.575   5.394   7.188
  189MY     H3R 7430   3.466   5.388   7.188
  189MY     H3S 7431   3.612   5.297   7.152
  189MY     C12 7432   3.629   5.407   7.336
  189MY     H2R 7433   3.737   5.400   7.348
  189MY     H2S 7434   3.606   5.511   7.361
  190MY    H14T 7435   5.660   5.093   6.345
  190MY    C114 7436   5.686   5.001   6.293
  190MY    H14R 7437   5.617   4.931   6.341
  190MY    H14S 7438   5.666   5.006   6.186
  190MY    C113 7439   5.830   4.958   6.311
  190MY    H13R 7440   5.870   4.906   6.223
  190MY    H13S 7441   5.897   5.043   6.317
  190MY    C112 7442   5.865   4.879   6.436
  190MY    H12R 7443   5.971   4.881   6.460
  190MY    H12S 7444   5.815   4.929   6.519
  190MY    C111 7445   5.812   4.739   6.424
  190MY    H11R 7446   5.711   4.730   6.383
  190MY    H11S 7447   5.867   4.689   6.344
  190MY    C110 7448   5.827   4.673   6.564
  190MY    H10R 7449   5.932   4.670   6.594
  190MY    H10S 7450   5.769   4.734   6.634
  190MY     C19 7451   5.770   4.532   6.569
  190MY     H9R 7452   5.661   4.539   6.566
  190MY     H9S 7453   5.814   4.478   6.484
  190MY     C18 7454   5.802   4.451   6.701
  190MY     H8R 7455   5.744   4.360   6.690
  190MY     H8S 7456   5.910   4.433   6.704
  190MY     C17 7457   5.766   4.516   6.832
  190MY     H7R 7458   5.828   4.604   6.846
  190MY     H7S 7459   5.663   4.550   6.815
  190MY     C16 7460   5.777   4.429   6.957
  190MY     H6R 7461   5.736   4.330   6.938
  190MY     H6S 7462   5.880   4.399   6.976
  190MY     C15 7463   5.713   4.505   7.075
  190MY     H5R 7464   5.769   4.596   7.094
  190MY     H5S 7465   5.613   4.539   7.047
  190MY     C14 7466   5.699   4.401   7.191
  190MY     H4R 7467   5.622   4.326   7.170
  190MY     H4S 7468   5.799   4.359   7.201
  190MY     C13 7469   5.661   4.457   7.332
  190MY     H3R 7470   5.683   4.364   7.384
  190MY     H3S 7471   5.736   4.534   7.354
  190MY     C12 7472   5.519   4.498   7.352
  190MY     H2R 7473   5.492   4.574   7.278
  190MY     H2S 7474   5.461   4.407   7.332
  191PC     C11 7475   5.493   4.542   7.495
  191PC     O12 7476   5.529   4.483   7.591
  191PC     O11 7477   5.420   4.653   7.500
  191PC      C1 7478   5.408   4.715   7.628
  191PC      HR 7479   5.405   4.637   7.704
  191PC      HS 7480   5.499   4.771   7.654
  191PC      C2 7481   5.282   4.800   7.652
  191PC      HX 7482   5.294   4.888   7.588
  191PC      C3 7483   5.266   4.841   7.798
  191PC      HA 7484   5.341   4.911   7.836
  191PC      HB 7485   5.170   4.890   7.819
  191PC     O31 7486   5.259   4.725   7.883
  191PC     P31 7487   5.228   4.739   8.040
  191PC     O32 7488   5.071   4.773   8.036
  191PC     C31 7489   4.967   4.671   8.005
  191PC     H1A 7490   4.873   4.719   7.979
  191PC     H1B 7491   4.998   4.615   7.917
  191PC     C32 7492   4.953   4.578   8.126
  191PC     H2A 7493   4.920   4.479   8.093
  191PC     H2B 7494   5.051   4.555   8.168
  191PC     N31 7495   4.855   4.607   8.240
  191PC     C33 7496   4.717   4.603   8.198
  191PC     H3A 7497   4.651   4.662   8.261
  191PC     H3B 7498   4.696   4.496   8.198
  191PC     H3C 7499   4.701   4.637   8.096
  191PC     C34 7500   4.876   4.743   8.293
  191PC     H4A 7501   4.973   4.746   8.344
  191PC     H4B 7502   4.802   4.777   8.366
  191PC     H4C 7503   4.863   4.811   8.209
  191PC     C35 7504   4.892   4.518   8.358
  191PC     H5A 7505   4.872   4.415   8.331
  191PC     H5B 7506   4.834   4.557   8.442
  191PC     H5C 7507   4.999   4.530   8.377
  191PC     O33 7508   5.260   4.611   8.097
  191PC     O34 7509   5.302   4.860   8.083
  191PC     O21 7510   5.173   4.716   7.610
  191PC     C21 7511   5.078   4.766   7.538
  191PC     O22 7512   5.067   4.887   7.512
  192MY    H14T 7513   5.657   5.110   6.792
  192MY    C114 7514   5.614   5.013   6.769
  192MY    H14R 7515   5.702   4.949   6.758
  192MY    H14S 7516   5.547   4.976   6.846
  192MY    C113 7517   5.528   5.030   6.646
  192MY    H13R 7518   5.455   5.109   6.666
  192MY    H13S 7519   5.590   5.080   6.571
  192MY    C112 7520   5.466   4.904   6.585
  192MY    H12R 7521   5.376   4.939   6.535
  192MY    H12S 7522   5.532   4.863   6.508
  192MY    C111 7523   5.431   4.790   6.682
  192MY    H11R 7524   5.522   4.749   6.728
  192MY    H11S 7525   5.374   4.832   6.765
  192MY    C110 7526   5.352   4.672   6.619
  192MY    H10R 7527   5.260   4.713   6.577
  192MY    H10S 7528   5.414   4.618   6.547
  192MY     C19 7529   5.309   4.559   6.713
  192MY     H9R 7530   5.252   4.486   6.655
  192MY     H9S 7531   5.401   4.518   6.756
  192MY     C18 7532   5.213   4.597   6.828
  192MY     H8R 7533   5.253   4.671   6.898
  192MY     H8S 7534   5.115   4.633   6.798
  192MY     C17 7535   5.184   4.477   6.923
  192MY     H7R 7536   5.109   4.415   6.876
  192MY     H7S 7537   5.278   4.428   6.950
  192MY     C16 7538   5.108   4.534   7.046
  192MY     H6R 7539   5.170   4.613   7.090
  192MY     H6S 7540   5.024   4.590   7.005
  192MY     C15 7541   5.083   4.434   7.167
  192MY     H5R 7542   5.040   4.339   7.136
  192MY     H5S 7543   5.176   4.408   7.218
  192MY     C14 7544   4.999   4.496   7.281
  192MY     H4R 7545   4.897   4.528   7.256
  192MY     H4S 7546   4.990   4.417   7.355
  192MY     C13 7547   5.071   4.612   7.350
  192MY     H3R 7548   5.164   4.563   7.377
  192MY     H3S 7549   5.090   4.699   7.286
  192MY     C12 7550   4.996   4.658   7.477
  192MY     H2R 7551   4.899   4.698   7.446
  192MY     H2S 7552   4.979   4.572   7.542
  193MY    H14T 7553   0.411   1.877   6.081
  193MY    C114 7554   0.324   1.909   6.138
  193MY    H14R 7555   0.341   1.926   6.245
  193MY    H14S 7556   0.277   1.990   6.083
  193MY    C113 7557   0.216   1.796   6.125
  193MY    H13R 7558   0.246   1.701   6.169
  193MY    H13S 7559   0.121   1.823   6.172
  193MY    C112 7560   0.186   1.760   5.978
  193MY    H12R 7561   0.155   1.848   5.922
  193MY    H12S 7562   0.273   1.719   5.924
  193MY    C111 7563   0.070   1.656   5.962
  193MY    H11R 7564   0.072   1.580   6.040
  193MY    H11S 7565  -0.024   1.710   5.979
  193MY    C110 7566   0.072   1.596   5.826
  193MY    H10R 7567   0.029   1.665   5.753
  193MY    H10S 7568   0.177   1.587   5.799
  193MY     C19 7569   0.006   1.453   5.802
  193MY     H9R 7570   0.013   1.382   5.885
  193MY     H9S 7571  -0.097   1.478   5.778
  193MY     C18 7572   0.065   1.396   5.673
  193MY     H8R 7573   0.037   1.469   5.596
  193MY     H8S 7574   0.173   1.383   5.683
  193MY     C17 7575   0.004   1.264   5.623
  193MY     H7R 7576   0.016   1.185   5.697
  193MY     H7S 7577  -0.103   1.273   5.601
  193MY     C16 7578   0.079   1.211   5.498
  193MY     H6R 7579   0.184   1.207   5.527
  193MY     H6S 7580   0.051   1.108   5.474
  193MY     C15 7581   0.086   1.295   5.371
  193MY     H5R 7582  -0.014   1.315   5.332
  193MY     H5S 7583   0.136   1.388   5.399
  193MY     C14 7584   0.152   1.222   5.250
  193MY     H4R 7585   0.098   1.127   5.239
  193MY     H4S 7586   0.132   1.274   5.156
  193MY     C13 7587   0.304   1.189   5.267
  193MY     H3R 7588   0.363   1.281   5.256
  193MY     H3S 7589   0.323   1.157   5.370
  193MY     C12 7590   0.343   1.089   5.161
  193MY     H2R 7591   0.294   0.992   5.167
  193MY     H2S 7592   0.318   1.119   5.059
  194PC     C11 7593   0.495   1.081   5.151
  194PC     O12 7594   0.556   1.180   5.120
  194PC     O11 7595   0.549   0.965   5.182
  194PC      C1 7596   0.680   0.930   5.127
  194PC      HR 7597   0.670   0.901   5.022
  194PC      HS 7598   0.751   1.011   5.143
  194PC      C2 7599   0.739   0.799   5.191
  194PC      HX 7600   0.848   0.807   5.182
  194PC      C3 7601   0.696   0.673   5.118
  194PC      HA 7602   0.744   0.582   5.155
  194PC      HB 7603   0.595   0.651   5.154
  194PC     O31 7604   0.721   0.684   4.972
  194PC     P31 7605   0.857   0.643   4.906
  194PC     O32 7606   0.964   0.743   4.973
  194PC     C31 7607   1.004   0.863   4.902
  194PC     H1A 7608   0.942   0.898   4.819
  194PC     H1B 7609   1.020   0.943   4.974
  194PC     C32 7610   1.134   0.833   4.834
  194PC     H2A 7611   1.211   0.813   4.909
  194PC     H2B 7612   1.125   0.749   4.766
  194PC     N31 7613   1.198   0.941   4.755
  194PC     C33 7614   1.323   0.911   4.704
  194PC     H3A 7615   1.357   1.001   4.651
  194PC     H3B 7616   1.325   0.820   4.644
  194PC     H3C 7617   1.395   0.902   4.785
  194PC     C34 7618   1.207   1.065   4.838
  194PC     H4A 7619   1.108   1.107   4.855
  194PC     H4B 7620   1.258   1.141   4.779
  194PC     H4C 7621   1.264   1.047   4.930
  194PC     C35 7622   1.112   0.978   4.641
  194PC     H5A 7623   1.022   1.031   4.673
  194PC     H5B 7624   1.081   0.890   4.585
  194PC     H5C 7625   1.160   1.059   4.587
  194PC     O33 7626   0.891   0.511   4.956
  194PC     O34 7627   0.848   0.665   4.757
  194PC     O21 7628   0.717   0.783   5.330
  194PC     C21 7629   0.802   0.711   5.402
  194PC     O22 7630   0.894   0.651   5.353
  195MY    H14T 7631   0.872   0.341   6.956
  195MY    C114 7632   0.906   0.252   6.902
  195MY    H14R 7633   0.985   0.231   6.975
  195MY    H14S 7634   0.839   0.168   6.921
  195MY    C113 7635   0.944   0.272   6.754
  195MY    H13R 7636   1.023   0.348   6.755
  195MY    H13S 7637   0.987   0.179   6.718
  195MY    C112 7638   0.823   0.314   6.666
  195MY    H12R 7639   0.736   0.249   6.675
  195MY    H12S 7640   0.800   0.416   6.698
  195MY    C111 7641   0.867   0.320   6.518
  195MY    H11R 7642   0.943   0.397   6.504
  195MY    H11S 7643   0.911   0.224   6.493
  195MY    C110 7644   0.752   0.354   6.419
  195MY    H10R 7645   0.691   0.263   6.423
  195MY    H10S 7646   0.691   0.437   6.454
  195MY     C19 7647   0.796   0.391   6.271
  195MY     H9R 7648   0.845   0.305   6.223
  195MY     H9S 7649   0.713   0.418   6.206
  195MY     C18 7650   0.892   0.511   6.265
  195MY     H8R 7651   0.824   0.594   6.287
  195MY     H8S 7652   0.973   0.506   6.337
  195MY     C17 7653   0.944   0.543   6.126
  195MY     H7R 7654   1.031   0.610   6.128
  195MY     H7S 7655   0.999   0.454   6.094
  195MY     C16 7656   0.851   0.587   6.022
  195MY     H6R 7657   0.771   0.514   6.005
  195MY     H6S 7658   0.805   0.680   6.054
  195MY     C15 7659   0.913   0.617   5.883
  195MY     H5R 7660   0.998   0.684   5.871
  195MY     H5S 7661   0.947   0.516   5.856
  195MY     C14 7662   0.807   0.671   5.786
  195MY     H4R 7663   0.734   0.593   5.764
  195MY     H4S 7664   0.754   0.757   5.828
  195MY     C13 7665   0.874   0.707   5.653
  195MY     H3R 7666   0.931   0.797   5.673
  195MY     H3S 7667   0.933   0.621   5.621
  195MY     C12 7668   0.763   0.730   5.549
  195MY     H2R 7669   0.676   0.666   5.569
  195MY     H2S 7670   0.730   0.833   5.558
  196MY    H14T 7671   3.232   0.587   5.727
  196MY    C114 7672   3.337   0.605   5.748
  196MY    H14R 7673   3.346   0.668   5.837
  196MY    H14S 7674   3.400   0.517   5.762
  196MY    C113 7675   3.407   0.676   5.628
  196MY    H13R 7676   3.383   0.782   5.630
  196MY    H13S 7677   3.512   0.666   5.657
  196MY    C112 7678   3.355   0.615   5.497
  196MY    H12R 7679   3.342   0.507   5.496
  196MY    H12S 7680   3.254   0.654   5.482
  196MY    C111 7681   3.455   0.652   5.382
  196MY    H11R 7682   3.461   0.760   5.369
  196MY    H11S 7683   3.549   0.605   5.413
  196MY    C110 7684   3.415   0.598   5.240
  196MY    H10R 7685   3.487   0.639   5.169
  196MY    H10S 7686   3.407   0.489   5.239
  196MY     C19 7687   3.278   0.642   5.189
  196MY     H9R 7688   3.205   0.590   5.250
  196MY     H9S 7689   3.274   0.750   5.204
  196MY     C18 7690   3.257   0.608   5.037
  196MY     H8R 7691   3.341   0.648   4.981
  196MY     H8S 7692   3.248   0.501   5.015
  196MY     C17 7693   3.131   0.683   4.984
  196MY     H7R 7694   3.046   0.628   5.024
  196MY     H7S 7695   3.124   0.781   5.032
  196MY     C16 7696   3.120   0.685   4.831
  196MY     H6R 7697   3.211   0.730   4.791
  196MY     H6S 7698   3.112   0.581   4.799
  196MY     C15 7699   3.002   0.769   4.787
  196MY     H5R 7700   2.911   0.726   4.829
  196MY     H5S 7701   3.000   0.867   4.835
  196MY     C14 7702   2.977   0.788   4.635
  196MY     H4R 7703   2.956   0.688   4.595
  196MY     H4S 7704   2.891   0.854   4.627
  196MY     C13 7705   3.093   0.855   4.559
  196MY     H3R 7706   3.115   0.951   4.607
  196MY     H3S 7707   3.183   0.795   4.575
  196MY     C12 7708   3.054   0.891   4.411
  196MY     H2R 7709   2.958   0.942   4.406
  196MY     H2S 7710   3.124   0.971   4.386
  197PC     C11 7711   3.065   0.775   4.316
  197PC     O12 7712   2.995   0.678   4.330
  197PC     O11 7713   3.156   0.782   4.219
  197PC      C1 7714   3.186   0.659   4.143
  197PC      HR 7715   3.226   0.586   4.214
  197PC      HS 7716   3.090   0.629   4.099
  197PC      C2 7717   3.293   0.692   4.039
  197PC      HX 7718   3.269   0.785   3.987
  197PC      C3 7719   3.307   0.580   3.940
  197PC      HA 7720   3.399   0.602   3.886
  197PC      HB 7721   3.309   0.491   4.003
  197PC     O31 7722   3.184   0.571   3.858
  197PC     P31 7723   3.156   0.476   3.734
  197PC     O32 7724   3.241   0.543   3.619
  197PC     C31 7725   3.193   0.648   3.535
  197PC     H1A 7726   3.125   0.613   3.458
  197PC     H1B 7727   3.148   0.726   3.597
  197PC     C32 7728   3.315   0.715   3.469
  197PC     H2A 7729   3.380   0.729   3.555
  197PC     H2B 7730   3.369   0.643   3.407
  197PC     N31 7731   3.296   0.837   3.387
  197PC     C33 7732   3.245   0.936   3.486
  197PC     H3A 7733   3.147   0.903   3.523
  197PC     H3B 7734   3.232   1.033   3.438
  197PC     H3C 7735   3.315   0.926   3.570
  197PC     C34 7736   3.197   0.840   3.273
  197PC     H4A 7737   3.181   0.942   3.240
  197PC     H4B 7738   3.098   0.799   3.296
  197PC     H4C 7739   3.243   0.786   3.191
  197PC     C35 7740   3.433   0.876   3.342
  197PC     H5A 7741   3.423   0.980   3.310
  197PC     H5B 7742   3.470   0.816   3.259
  197PC     H5C 7743   3.501   0.872   3.427
  197PC     O33 7744   3.210   0.342   3.755
  197PC     O34 7745   3.018   0.499   3.693
  197PC     O21 7746   3.418   0.714   4.118
  197PC     C21 7747   3.468   0.842   4.117
  197PC     O22 7748   3.399   0.937   4.080
  198MY    H14T 7749   3.617   1.028   5.618
  198MY    C114 7750   3.625   1.120   5.560
  198MY    H14R 7751   3.638   1.209   5.621
  198MY    H14S 7752   3.709   1.114   5.490
  198MY    C113 7753   3.503   1.137   5.475
  198MY    H13R 7754   3.419   1.086   5.522
  198MY    H13S 7755   3.481   1.242   5.457
  198MY    C112 7756   3.528   1.060   5.348
  198MY    H12R 7757   3.620   1.102   5.306
  198MY    H12S 7758   3.542   0.955   5.373
  198MY    C111 7759   3.418   1.074   5.244
  198MY    H11R 7760   3.324   1.041   5.290
  198MY    H11S 7761   3.400   1.177   5.214
  198MY    C110 7762   3.440   0.982   5.114
  198MY    H10R 7763   3.474   0.880   5.136
  198MY    H10S 7764   3.347   0.966   5.059
  198MY     C19 7765   3.523   1.058   5.015
  198MY     H9R 7766   3.464   1.147   4.994
  198MY     H9S 7767   3.614   1.079   5.071
  198MY     C18 7768   3.550   0.982   4.881
  198MY     H8R 7769   3.610   1.039   4.810
  198MY     H8S 7770   3.622   0.906   4.913
  198MY     C17 7771   3.432   0.917   4.809
  198MY     H7R 7772   3.381   0.844   4.872
  198MY     H7S 7773   3.362   0.996   4.781
  198MY     C16 7774   3.466   0.839   4.674
  198MY     H6R 7775   3.552   0.775   4.689
  198MY     H6S 7776   3.379   0.777   4.655
  198MY     C15 7777   3.494   0.932   4.556
  198MY     H5R 7778   3.405   0.989   4.531
  198MY     H5S 7779   3.579   0.997   4.577
  198MY     C14 7780   3.522   0.844   4.437
  198MY     H4R 7781   3.591   0.763   4.464
  198MY     H4S 7782   3.430   0.808   4.391
  198MY     C13 7783   3.591   0.922   4.325
  198MY     H3R 7784   3.535   1.015   4.314
  198MY     H3S 7785   3.696   0.937   4.351
  198MY     C12 7786   3.604   0.847   4.187
  198MY     H2R 7787   3.673   0.896   4.119
  198MY     H2S 7788   3.648   0.748   4.206
  199MY    H14T 7789   6.144   3.803   5.404
  199MY    C114 7790   6.131   3.903   5.445
  199MY    H14R 7791   6.194   3.971   5.387
  199MY    H14S 7792   6.026   3.933   5.434
  199MY    C113 7793   6.195   3.921   5.582
  199MY    H13R 7794   6.151   4.008   5.632
  199MY    H13S 7795   6.181   3.833   5.645
  199MY    C112 7796   6.351   3.934   5.571
  199MY    H12R 7797   6.379   3.832   5.545
  199MY    H12S 7798   6.371   3.993   5.482
  199MY    C111 7799   6.431   3.980   5.698
  199MY    H11R 7800   6.432   3.901   5.773
  199MY    H11S 7801   6.534   3.985   5.660
  199MY    C110 7802   6.390   4.118   5.753
  199MY    H10R 7803   6.288   4.114   5.792
  199MY    H10S 7804   6.449   4.135   5.843
  199MY     C19 7805   6.398   4.241   5.662
  199MY     H9R 7806   6.347   4.211   5.570
  199MY     H9S 7807   6.333   4.320   5.699
  199MY     C18 7808   6.541   4.294   5.629
  199MY     H8R 7809   6.593   4.318   5.722
  199MY     H8S 7810   6.600   4.215   5.583
  199MY     C17 7811   6.559   4.408   5.539
  199MY     H7R 7812   6.534   4.501   5.591
  199MY     H7S 7813   6.662   4.426   5.508
  199MY     C16 7814   6.476   4.416   5.412
  199MY     H6R 7815   6.368   4.425   5.427
  199MY     H6S 7816   6.510   4.506   5.360
  199MY     C15 7817   6.518   4.297   5.326
  199MY     H5R 7818   6.618   4.313   5.285
  199MY     H5S 7819   6.521   4.201   5.377
  199MY     C14 7820   6.422   4.274   5.209
  199MY     H4R 7821   6.330   4.242   5.259
  199MY     H4S 7822   6.401   4.363   5.148
  199MY     C13 7823   6.475   4.161   5.109
  199MY     H3R 7824   6.393   4.167   5.037
  199MY     H3S 7825   6.566   4.187   5.055
  199MY     C12 7826   6.493   4.019   5.171
  199MY     H2R 7827   6.574   4.027   5.244
  199MY     H2S 7828   6.409   3.980   5.228
  200PC     C11 7829   6.523   3.922   5.054
  200PC     O12 7830   6.435   3.901   4.970
  200PC     O11 7831   6.654   3.882   5.044
  200PC      C1 7832   6.681   3.795   4.932
  200PC      HR 7833   6.607   3.715   4.927
  200PC      HS 7834   6.683   3.850   4.838
  200PC      C2 7835   6.820   3.728   4.951
  200PC      HX 7836   6.882   3.794   5.011
  200PC      C3 7837   6.875   3.714   4.809
  200PC      HA 7838   6.897   3.812   4.765
  200PC      HB 7839   6.970   3.661   4.818
  200PC     O31 7840   6.785   3.634   4.733
  200PC     P31 7841   6.786   3.631   4.574
  200PC     O32 7842   6.668   3.731   4.528
  200PC     C31 7843   6.700   3.865   4.487
  200PC     H1A 7844   6.770   3.916   4.555
  200PC     H1B 7845   6.757   3.862   4.394
  200PC     C32 7846   6.563   3.942   4.474
  200PC     H2A 7847   6.506   3.932   4.566
  200PC     H2B 7848   6.581   4.047   4.452
  200PC     N31 7849   6.475   3.906   4.357
  200PC     C33 7850   6.353   3.990   4.355
  200PC     H3A 7851   6.330   3.998   4.249
  200PC     H3B 7852   6.389   4.088   4.388
  200PC     H3C 7853   6.275   3.952   4.421
  200PC     C34 7854   6.438   3.765   4.361
  200PC     H4A 7855   6.384   3.741   4.269
  200PC     H4B 7856   6.375   3.751   4.448
  200PC     H4C 7857   6.527   3.702   4.354
  200PC     C35 7858   6.546   3.926   4.228
  200PC     H5A 7859   6.599   3.831   4.212
  200PC     H5B 7860   6.617   4.009   4.227
  200PC     H5C 7861   6.475   3.922   4.146
  200PC     O33 7862   6.910   3.685   4.516
  200PC     O34 7863   6.744   3.497   4.535
  200PC     O21 7864   6.810   3.597   5.011
  200PC     C21 7865   6.902   3.572   5.110
  200PC     O22 7866   6.998   3.641   5.141
  201MY    H14T 7867   7.208   2.989   6.167
  201MY    C114 7868   7.304   3.031   6.198
  201MY    H14R 7869   7.295   3.140   6.205
  201MY    H14S 7870   7.336   2.988   6.293
  201MY    C113 7871   7.399   2.987   6.090
  201MY    H13R 7872   7.503   3.010   6.116
  201MY    H13S 7873   7.389   2.879   6.100
  201MY    C112 7874   7.371   3.036   5.949
  201MY    H12R 7875   7.351   3.143   5.949
  201MY    H12S 7876   7.457   3.020   5.882
  201MY    C111 7877   7.244   2.960   5.897
  201MY    H11R 7878   7.258   2.853   5.914
  201MY    H11S 7879   7.147   2.994   5.935
  201MY    C110 7880   7.244   2.985   5.747
  201MY    H10R 7881   7.248   3.093   5.731
  201MY    H10S 7882   7.323   2.934   5.692
  201MY     C19 7883   7.115   2.924   5.681
  201MY     H9R 7884   7.114   2.816   5.690
  201MY     H9S 7885   7.029   2.970   5.731
  201MY     C18 7886   7.109   2.951   5.534
  201MY     H8R 7887   7.176   2.883   5.480
  201MY     H8S 7888   7.005   2.934   5.504
  201MY     C17 7889   7.128   3.100   5.498
  201MY     H7R 7890   7.087   3.170   5.571
  201MY     H7S 7891   7.235   3.125   5.497
  201MY     C16 7892   7.076   3.132   5.357
  201MY     H6R 7893   7.125   3.222   5.322
  201MY     H6S 7894   7.102   3.045   5.295
  201MY     C15 7895   6.924   3.169   5.357
  201MY     H5R 7896   6.882   3.148   5.258
  201MY     H5S 7897   6.876   3.090   5.415
  201MY     C14 7898   6.892   3.307   5.405
  201MY     H4R 7899   6.783   3.308   5.415
  201MY     H4S 7900   6.947   3.322   5.499
  201MY     C13 7901   6.932   3.424   5.313
  201MY     H3R 7902   6.897   3.505   5.378
  201MY     H3S 7903   7.040   3.436   5.313
  201MY     C12 7904   6.865   3.441   5.173
  201MY     H2R 7905   6.902   3.364   5.105
  201MY     H2S 7906   6.757   3.426   5.172
  202MY    H14T 7907   4.234   4.187   5.918
  202MY    C114 7908   4.210   4.163   5.814
  202MY    H14R 7909   4.171   4.061   5.804
  202MY    H14S 7910   4.136   4.236   5.780
  202MY    C113 7911   4.335   4.186   5.734
  202MY    H13R 7912   4.308   4.179   5.628
  202MY    H13S 7913   4.351   4.293   5.752
  202MY    C112 7914   4.460   4.094   5.773
  202MY    H12R 7915   4.545   4.121   5.709
  202MY    H12S 7916   4.476   4.106   5.880
  202MY    C111 7917   4.438   3.946   5.732
  202MY    H11R 7918   4.505   3.882   5.789
  202MY    H11S 7919   4.335   3.918   5.754
  202MY    C110 7920   4.452   3.924   5.578
  202MY    H10R 7921   4.417   3.822   5.558
  202MY    H10S 7922   4.385   3.991   5.524
  202MY     C19 7923   4.586   3.933   5.511
  202MY     H9R 7924   4.633   4.030   5.531
  202MY     H9S 7925   4.645   3.860   5.567
  202MY     C18 7926   4.598   3.903   5.357
  202MY     H8R 7927   4.514   3.841   5.324
  202MY     H8S 7928   4.582   3.997   5.303
  202MY     C17 7929   4.742   3.864   5.319
  202MY     H7R 7930   4.803   3.948   5.354
  202MY     H7S 7931   4.774   3.774   5.373
  202MY     C16 7932   4.778   3.837   5.171
  202MY     H6R 7933   4.885   3.814   5.168
  202MY     H6S 7934   4.732   3.744   5.137
  202MY     C15 7935   4.732   3.944   5.071
  202MY     H5R 7936   4.762   3.915   4.970
  202MY     H5S 7937   4.624   3.962   5.077
  202MY     C14 7938   4.796   4.083   5.096
  202MY     H4R 7939   4.776   4.116   5.198
  202MY     H4S 7940   4.903   4.062   5.087
  202MY     C13 7941   4.750   4.199   5.005
  202MY     H3R 7942   4.743   4.154   4.906
  202MY     H3S 7943   4.652   4.220   5.047
  202MY     C12 7944   4.835   4.323   5.003
  202MY     H2R 7945   4.833   4.371   5.101
  202MY     H2S 7946   4.935   4.287   4.979
  203PC     C11 7947   4.798   4.433   4.897
  203PC     O12 7948   4.686   4.482   4.890
  203PC     O11 7949   4.901   4.462   4.813
  203PC      C1 7950   4.873   4.573   4.719
  203PC      HR 7951   4.823   4.533   4.631
  203PC      HS 7952   4.825   4.660   4.764
  203PC      C2 7953   4.998   4.626   4.657
  203PC      HX 7954   4.969   4.695   4.577
  203PC      C3 7955   5.087   4.514   4.601
  203PC      HA 7956   5.123   4.447   4.680
  203PC      HB 7957   5.028   4.458   4.529
  203PC     O31 7958   5.210   4.569   4.550
  203PC     P31 7959   5.221   4.608   4.400
  203PC     O32 7960   5.273   4.475   4.338
  203PC     C31 7961   5.410   4.433   4.355
  203PC     H1A 7962   5.470   4.493   4.423
  203PC     H1B 7963   5.420   4.330   4.390
  203PC     C32 7964   5.469   4.472   4.215
  203PC     H2A 7965   5.446   4.400   4.137
  203PC     H2B 7966   5.420   4.563   4.179
  203PC     N31 7967   5.619   4.486   4.207
  203PC     C33 7968   5.662   4.508   4.060
  203PC     H3A 7969   5.769   4.528   4.072
  203PC     H3B 7970   5.615   4.599   4.025
  203PC     H3C 7971   5.640   4.422   3.997
  203PC     C34 7972   5.692   4.369   4.263
  203PC     H4A 7973   5.800   4.384   4.254
  203PC     H4B 7974   5.677   4.280   4.202
  203PC     H4C 7975   5.657   4.353   4.366
  203PC     C35 7976   5.665   4.599   4.293
  203PC     H5A 7977   5.609   4.685   4.255
  203PC     H5B 7978   5.773   4.618   4.298
  203PC     H5C 7979   5.629   4.571   4.392
  203PC     O33 7980   5.078   4.630   4.362
  203PC     O34 7981   5.321   4.717   4.388
  203PC     O21 7982   5.073   4.700   4.755
  203PC     C21 7983   5.093   4.837   4.739
  203PC     O22 7984   5.047   4.908   4.654
  204MY    H14T 7985   4.688   5.175   5.810
  204MY    C114 7986   4.735   5.205   5.904
  204MY    H14R 7987   4.660   5.167   5.975
  204MY    H14S 7988   4.828   5.149   5.914
  204MY    C113 7989   4.743   5.357   5.908
  204MY    H13R 7990   4.638   5.387   5.901
  204MY    H13S 7991   4.782   5.385   6.006
  204MY    C112 7992   4.823   5.410   5.792
  204MY    H12R 7993   4.841   5.518   5.794
  204MY    H12S 7994   4.923   5.372   5.816
  204MY    C111 7995   4.801   5.352   5.657
  204MY    H11R 7996   4.817   5.245   5.673
  204MY    H11S 7997   4.696   5.367   5.632
  204MY    C110 7998   4.900   5.395   5.544
  204MY    H10R 7999   4.887   5.503   5.534
  204MY    H10S 8000   5.002   5.369   5.572
  204MY     C19 8001   4.859   5.319   5.414
  204MY     H9R 8002   4.831   5.214   5.429
  204MY     H9S 8003   4.767   5.361   5.373
  204MY     C18 8004   4.960   5.323   5.307
  204MY     H8R 8005   4.985   5.427   5.287
  204MY     H8S 8006   5.049   5.265   5.333
  204MY     C17 8007   4.898   5.264   5.173
  204MY     H7R 8008   4.867   5.164   5.204
  204MY     H7S 8009   4.810   5.324   5.151
  204MY     C16 8010   4.992   5.251   5.048
  204MY     H6R 8011   4.938   5.211   4.962
  204MY     H6S 8012   5.012   5.356   5.025
  204MY     C15 8013   5.115   5.160   5.074
  204MY     H5R 8014   5.180   5.176   4.988
  204MY     H5S 8015   5.161   5.184   5.169
  204MY     C14 8016   5.080   5.012   5.084
  204MY     H4R 8017   5.165   4.952   5.117
  204MY     H4S 8018   4.995   4.999   5.151
  204MY     C13 8019   5.049   4.948   4.951
  204MY     H3R 8020   4.994   4.857   4.975
  204MY     H3S 8021   4.980   5.008   4.892
  204MY     C12 8022   5.163   4.896   4.861
  204MY     H2R 8023   5.226   4.975   4.821
  204MY     H2S 8024   5.228   4.826   4.913
  205MY    H14T 8025   3.756   5.484   5.700
  205MY    C114 8026   3.668   5.455   5.757
  205MY    H14R 8027   3.595   5.402   5.696
  205MY    H14S 8028   3.700   5.392   5.841
  205MY    C113 8029   3.596   5.583   5.807
  205MY    H13R 8030   3.678   5.643   5.847
  205MY    H13S 8031   3.562   5.647   5.725
  205MY    C112 8032   3.483   5.574   5.920
  205MY    H12R 8033   3.416   5.496   5.882
  205MY    H12S 8034   3.533   5.519   6.001
  205MY    C111 8035   3.408   5.696   5.968
  205MY    H11R 8036   3.336   5.674   6.047
  205MY    H11S 8037   3.489   5.756   6.011
  205MY    C110 8038   3.354   5.779   5.847
  205MY    H10R 8039   3.316   5.879   5.869
  205MY    H10S 8040   3.438   5.799   5.781
  205MY     C19 8041   3.252   5.692   5.766
  205MY     H9R 8042   3.313   5.615   5.718
  205MY     H9S 8043   3.179   5.642   5.829
  205MY     C18 8044   3.177   5.764   5.656
  205MY     H8R 8045   3.113   5.695   5.600
  205MY     H8S 8046   3.108   5.834   5.705
  205MY     C17 8047   3.262   5.829   5.547
  205MY     H7R 8048   3.318   5.915   5.584
  205MY     H7S 8049   3.335   5.755   5.513
  205MY     C16 8050   3.182   5.866   5.422
  205MY     H6R 8051   3.139   5.775   5.380
  205MY     H6S 8052   3.099   5.930   5.453
  205MY     C15 8053   3.261   5.933   5.307
  205MY     H5R 8054   3.337   6.004   5.340
  205MY     H5S 8055   3.301   5.852   5.246
  205MY     C14 8056   3.164   6.007   5.222
  205MY     H4R 8057   3.108   6.076   5.286
  205MY     H4S 8058   3.226   6.068   5.156
  205MY     C13 8059   3.047   5.940   5.140
  205MY     H3R 8060   2.986   5.883   5.210
  205MY     H3S 8061   2.981   6.012   5.090
  205MY     C12 8062   3.102   5.837   5.039
  205MY     H2R 8063   3.172   5.888   4.973
  205MY     H2S 8064   3.155   5.754   5.087
  206PC     C11 8065   2.997   5.767   4.959
  206PC     O12 8066   2.884   5.808   4.944
  206PC     O11 8067   3.045   5.652   4.903
  206PC      C1 8068   2.958   5.569   4.830
  206PC      HR 8069   2.862   5.610   4.796
  206PC      HS 8070   3.006   5.532   4.739
  206PC      C2 8071   2.934   5.448   4.919
  206PC      HX 8072   3.031   5.409   4.948
  206PC      C3 8073   2.856   5.334   4.842
  206PC      HA 8074   2.932   5.277   4.787
  206PC      HB 8075   2.809   5.268   4.915
  206PC     O31 8076   2.761   5.396   4.739
  206PC     P31 8077   2.791   5.374   4.585
  206PC     O32 8078   2.763   5.217   4.571
  206PC     C31 8079   2.864   5.128   4.519
  206PC     H1A 8080   2.885   5.156   4.415
  206PC     H1B 8081   2.955   5.134   4.578
  206PC     C32 8082   2.805   4.985   4.508
  206PC     H2A 8083   2.872   4.921   4.450
  206PC     H2B 8084   2.795   4.940   4.607
  206PC     N31 8085   2.667   4.966   4.442
  206PC     C33 8086   2.641   4.822   4.440
  206PC     H3A 8087   2.732   4.766   4.415
  206PC     H3B 8088   2.557   4.800   4.374
  206PC     H3C 8089   2.611   4.794   4.541
  206PC     C34 8090   2.659   5.009   4.303
  206PC     H4A 8091   2.563   4.976   4.263
  206PC     H4B 8092   2.749   4.983   4.248
  206PC     H4C 8093   2.659   5.117   4.295
  206PC     C35 8094   2.550   5.022   4.515
  206PC     H5A 8095   2.465   4.991   4.453
  206PC     H5B 8096   2.564   5.130   4.528
  206PC     H5C 8097   2.548   4.983   4.617
  206PC     O33 8098   2.690   5.449   4.507
  206PC     O34 8099   2.932   5.391   4.558
  206PC     O21 8100   2.853   5.490   5.030
  206PC     C21 8101   2.896   5.450   5.152
  206PC     O22 8102   2.995   5.378   5.175
  207MY    H14T 8103   2.923   5.865   6.505
  207MY    C114 8104   2.943   5.956   6.448
  207MY    H14R 8105   2.907   6.034   6.516
  207MY    H14S 8106   3.046   5.989   6.431
  207MY    C113 8107   2.870   5.959   6.311
  207MY    H13R 8108   2.769   5.997   6.328
  207MY    H13S 8109   2.920   6.036   6.252
  207MY    C112 8110   2.869   5.824   6.236
  207MY    H12R 8111   2.963   5.775   6.212
  207MY    H12S 8112   2.831   5.746   6.303
  207MY    C111 8113   2.765   5.820   6.113
  207MY    H11R 8114   2.667   5.858   6.140
  207MY    H11S 8115   2.794   5.881   6.027
  207MY    C110 8116   2.757   5.675   6.063
  207MY    H10R 8117   2.843   5.664   5.996
  207MY    H10S 8118   2.759   5.596   6.138
  207MY     C19 8119   2.632   5.671   5.981
  207MY     H9R 8120   2.554   5.686   6.056
  207MY     H9S 8121   2.626   5.756   5.912
  207MY     C18 8122   2.612   5.535   5.904
  207MY     H8R 8123   2.625   5.460   5.981
  207MY     H8S 8124   2.508   5.539   5.872
  207MY     C17 8125   2.707   5.503   5.787
  207MY     H7R 8126   2.811   5.512   5.821
  207MY     H7S 8127   2.694   5.398   5.759
  207MY     C16 8128   2.674   5.600   5.675
  207MY     H6R 8129   2.572   5.606   5.636
  207MY     H6S 8130   2.701   5.698   5.715
  207MY     C15 8131   2.765   5.568   5.554
  207MY     H5R 8132   2.867   5.579   5.590
  207MY     H5S 8133   2.753   5.461   5.536
  207MY     C14 8134   2.737   5.661   5.433
  207MY     H4R 8135   2.631   5.656   5.405
  207MY     H4S 8136   2.757   5.765   5.461
  207MY     C13 8137   2.835   5.633   5.324
  207MY     H3R 8138   2.826   5.714   5.251
  207MY     H3S 8139   2.935   5.627   5.367
  207MY     C12 8140   2.802   5.496   5.259
  207MY     H2R 8141   2.804   5.413   5.330
  207MY     H2S 8142   2.698   5.496   5.226
  208MY    H14T 8143   5.545   2.591   5.996
  208MY    C114 8144   5.608   2.502   5.993
  208MY    H14R 8145   5.646   2.493   6.096
  208MY    H14S 8146   5.549   2.411   5.985
  208MY    C113 8147   5.736   2.491   5.907
  208MY    H13R 8148   5.801   2.571   5.944
  208MY    H13S 8149   5.780   2.397   5.938
  208MY    C112 8150   5.705   2.510   5.756
  208MY    H12R 8151   5.653   2.606   5.750
  208MY    H12S 8152   5.802   2.520   5.707
  208MY    C111 8153   5.632   2.397   5.689
  208MY    H11R 8154   5.534   2.390   5.738
  208MY    H11S 8155   5.612   2.418   5.584
  208MY    C110 8156   5.719   2.267   5.689
  208MY    H10R 8157   5.826   2.287   5.681
  208MY    H10S 8158   5.717   2.227   5.791
  208MY     C19 8159   5.688   2.153   5.584
  208MY     H9R 8160   5.684   2.053   5.628
  208MY     H9S 8161   5.585   2.168   5.552
  208MY     C18 8162   5.770   2.159   5.459
  208MY     H8R 8163   5.749   2.260   5.423
  208MY     H8S 8164   5.877   2.160   5.484
  208MY     C17 8165   5.732   2.056   5.349
  208MY     H7R 8166   5.747   1.949   5.365
  208MY     H7S 8167   5.625   2.053   5.327
  208MY     C16 8168   5.803   2.084   5.219
  208MY     H6R 8169   5.797   2.193   5.215
  208MY     H6S 8170   5.907   2.054   5.229
  208MY     C15 8171   5.738   2.021   5.095
  208MY     H5R 8172   5.639   2.067   5.087
  208MY     H5S 8173   5.796   2.042   5.006
  208MY     C14 8174   5.723   1.874   5.102
  208MY     H4R 8175   5.819   1.842   5.144
  208MY     H4S 8176   5.641   1.838   5.164
  208MY     C13 8177   5.720   1.801   4.966
  208MY     H3R 8178   5.630   1.830   4.911
  208MY     H3S 8179   5.796   1.845   4.900
  208MY     C12 8180   5.732   1.653   4.987
  208MY     H2R 8181   5.820   1.629   5.048
  208MY     H2S 8182   5.641   1.616   5.034
  209PC     C11 8183   5.738   1.579   4.856
  209PC     O12 8184   5.728   1.635   4.750
  209PC     O11 8185   5.771   1.449   4.868
  209PC      C1 8186   5.780   1.368   4.751
  209PC      HR 8187   5.680   1.325   4.745
  209PC      HS 8188   5.807   1.435   4.669
  209PC      C2 8189   5.895   1.269   4.775
  209PC      HX 8190   5.989   1.325   4.774
  209PC      C3 8191   5.905   1.162   4.658
  209PC      HA 8192   5.990   1.095   4.673
  209PC      HB 8193   5.808   1.113   4.657
  209PC     O31 8194   5.929   1.225   4.527
  209PC     P31 8195   6.064   1.291   4.476
  209PC     O32 8196   6.053   1.440   4.550
  209PC     C31 8197   5.984   1.546   4.481
  209PC     H1A 8198   5.932   1.510   4.392
  209PC     H1B 8199   5.906   1.589   4.544
  209PC     C32 8200   6.082   1.659   4.442
  209PC     H2A 8201   6.154   1.610   4.377
  209PC     H2B 8202   6.037   1.736   4.379
  209PC     N31 8203   6.146   1.736   4.551
  209PC     C33 8204   6.041   1.768   4.657
  209PC     H3A 8205   5.956   1.829   4.625
  209PC     H3B 8206   6.094   1.830   4.730
  209PC     H3C 8207   5.999   1.679   4.704
  209PC     C34 8208   6.206   1.865   4.492
  209PC     H4A 8209   6.123   1.925   4.456
  209PC     H4B 8210   6.269   1.834   4.408
  209PC     H4C 8211   6.273   1.916   4.561
  209PC     C35 8212   6.256   1.658   4.616
  209PC     H5A 8213   6.327   1.631   4.538
  209PC     H5B 8214   6.204   1.568   4.649
  209PC     H5C 8215   6.302   1.726   4.688
  209PC     O33 8216   6.177   1.225   4.534
  209PC     O34 8217   6.066   1.311   4.331
  209PC     O21 8218   5.874   1.207   4.906
  209PC     C21 8219   5.959   1.220   5.007
  209PC     O22 8220   6.065   1.281   5.006
  210MY    H14T 8221   6.307   2.021   6.035
  210MY    C114 8222   6.221   2.086   6.049
  210MY    H14R 8223   6.218   2.112   6.155
  210MY    H14S 8224   6.235   2.178   5.992
  210MY    C113 8225   6.081   2.027   6.006
  210MY    H13R 8226   6.068   1.933   6.060
  210MY    H13S 8227   5.998   2.093   6.031
  210MY    C112 8228   6.086   1.996   5.855
  210MY    H12R 8229   6.165   2.051   5.804
  210MY    H12S 8230   6.127   1.896   5.843
  210MY    C111 8231   5.942   2.013   5.789
  210MY    H11R 8232   5.901   2.110   5.820
  210MY    H11S 8233   5.949   2.023   5.681
  210MY    C110 8234   5.845   1.899   5.830
  210MY    H10R 8235   5.833   1.906   5.938
  210MY    H10S 8236   5.747   1.927   5.789
  210MY     C19 8237   5.879   1.757   5.793
  210MY     H9R 8238   5.982   1.738   5.824
  210MY     H9S 8239   5.809   1.687   5.839
  210MY     C18 8240   5.863   1.732   5.643
  210MY     H8R 8241   5.761   1.758   5.615
  210MY     H8S 8242   5.922   1.809   5.593
  210MY     C17 8243   5.894   1.589   5.595
  210MY     H7R 8244   6.001   1.569   5.597
  210MY     H7S 8245   5.847   1.528   5.673
  210MY     C16 8246   5.833   1.541   5.463
  210MY     H6R 8247   5.725   1.522   5.464
  210MY     H6S 8248   5.855   1.611   5.383
  210MY     C15 8249   5.912   1.415   5.417
  210MY     H5R 8250   6.017   1.443   5.413
  210MY     H5S 8251   5.902   1.339   5.495
  210MY     C14 8252   5.866   1.351   5.284
  210MY     H4R 8253   5.760   1.329   5.296
  210MY     H4S 8254   5.890   1.419   5.202
  210MY     C13 8255   5.932   1.212   5.262
  210MY     H3R 8256   6.041   1.216   5.274
  210MY     H3S 8257   5.905   1.142   5.342
  210MY     C12 8258   5.900   1.149   5.132
  210MY     H2R 8259   5.933   1.045   5.124
  210MY     H2S 8260   5.792   1.138   5.120
  211MY    H14T 8261   4.375   5.864   6.058
  211MY    C114 8262   4.376   5.756   6.078
  211MY    H14R 8263   4.336   5.734   6.178
  211MY    H14S 8264   4.306   5.707   6.010
  211MY    C113 8265   4.524   5.712   6.064
  211MY    H13R 8266   4.585   5.771   6.132
  211MY    H13S 8267   4.541   5.613   6.106
  211MY    C112 8268   4.583   5.716   5.922
  211MY    H12R 8269   4.595   5.817   5.884
  211MY    H12S 8270   4.680   5.666   5.923
  211MY    C111 8271   4.502   5.648   5.811
  211MY    H11R 8272   4.475   5.547   5.840
  211MY    H11S 8273   4.406   5.700   5.800
  211MY    C110 8274   4.568   5.651   5.671
  211MY    H10R 8275   4.569   5.749   5.623
  211MY    H10S 8276   4.668   5.610   5.680
  211MY     C19 8277   4.486   5.571   5.567
  211MY     H9R 8278   4.463   5.469   5.600
  211MY     H9S 8279   4.384   5.608   5.565
  211MY     C18 8280   4.538   5.568   5.422
  211MY     H8R 8281   4.639   5.528   5.410
  211MY     H8S 8282   4.472   5.498   5.371
  211MY     C17 8283   4.519   5.711   5.361
  211MY     H7R 8284   4.433   5.769   5.394
  211MY     H7S 8285   4.605   5.762   5.405
  211MY     C16 8286   4.510   5.727   5.213
  211MY     H6R 8287   4.513   5.833   5.186
  211MY     H6S 8288   4.597   5.673   5.175
  211MY     C15 8289   4.386   5.651   5.149
  211MY     H5R 8290   4.386   5.546   5.179
  211MY     H5S 8291   4.298   5.704   5.185
  211MY     C14 8292   4.390   5.645   4.997
  211MY     H4R 8293   4.304   5.585   4.967
  211MY     H4S 8294   4.381   5.745   4.954
  211MY     C13 8295   4.511   5.569   4.948
  211MY     H3R 8296   4.604   5.619   4.978
  211MY     H3S 8297   4.509   5.469   4.990
  211MY     C12 8298   4.522   5.561   4.788
  211MY     H2R 8299   4.435   5.511   4.746
  211MY     H2S 8300   4.523   5.660   4.741
  212PC     C11 8301   4.646   5.483   4.741
  212PC     O12 8302   4.666   5.366   4.764
  212PC     O11 8303   4.734   5.567   4.679
  212PC      C1 8304   4.863   5.518   4.632
  212PC      HR 8305   4.879   5.424   4.686
  212PC      HS 8306   4.859   5.505   4.523
  212PC      C2 8307   4.984   5.597   4.670
  212PC      HX 8308   4.969   5.697   4.630
  212PC      C3 8309   5.122   5.546   4.623
  212PC      HA 8310   5.196   5.619   4.654
  212PC      HB 8311   5.140   5.452   4.675
  212PC     O31 8312   5.117   5.532   4.480
  212PC     P31 8313   5.162   5.643   4.371
  212PC     O32 8314   5.298   5.591   4.318
  212PC     C31 8315   5.313   5.522   4.194
  212PC     H1A 8316   5.403   5.461   4.187
  212PC     H1B 8317   5.230   5.450   4.201
  212PC     C32 8318   5.303   5.607   4.068
  212PC     H2A 8319   5.263   5.552   3.983
  212PC     H2B 8320   5.222   5.676   4.090
  212PC     N31 8321   5.424   5.692   4.026
  212PC     C33 8322   5.501   5.749   4.141
  212PC     H3A 8323   5.452   5.840   4.175
  212PC     H3B 8324   5.603   5.764   4.105
  212PC     H3C 8325   5.506   5.686   4.229
  212PC     C34 8326   5.377   5.811   3.944
  212PC     H4A 8327   5.299   5.876   3.984
  212PC     H4B 8328   5.345   5.778   3.845
  212PC     H4C 8329   5.457   5.884   3.938
  212PC     C35 8330   5.517   5.606   3.947
  212PC     H5A 8331   5.604   5.663   3.916
  212PC     H5B 8332   5.467   5.570   3.857
  212PC     H5C 8333   5.551   5.525   4.012
  212PC     O33 8334   5.061   5.641   4.264
  212PC     O34 8335   5.185   5.774   4.445
  212PC     O21 8336   4.983   5.600   4.815
  212PC     C21 8337   5.011   5.701   4.895
  212PC     O22 8338   5.029   5.813   4.844
  213MY    H14T 8339   4.963   5.847   6.451
  213MY    C114 8340   4.863   5.878   6.419
  213MY    H14R 8341   4.796   5.792   6.414
  213MY    H14S 8342   4.827   5.955   6.487
  213MY    C113 8343   4.884   5.939   6.276
  213MY    H13R 8344   4.798   5.998   6.242
  213MY    H13S 8345   4.957   6.020   6.284
  213MY    C112 8346   4.903   5.832   6.167
  213MY    H12R 8347   4.970   5.754   6.203
  213MY    H12S 8348   4.807   5.781   6.154
  213MY    C111 8349   4.952   5.872   6.030
  213MY    H11R 8350   4.860   5.906   5.982
  213MY    H11S 8351   5.010   5.964   6.028
  213MY    C110 8352   5.035   5.766   5.952
  213MY    H10R 8353   5.136   5.760   5.994
  213MY    H10S 8354   4.991   5.667   5.958
  213MY     C19 8355   5.040   5.807   5.806
  213MY     H9R 8356   4.943   5.846   5.777
  213MY     H9S 8357   5.099   5.898   5.794
  213MY     C18 8358   5.097   5.686   5.725
  213MY     H8R 8359   5.200   5.669   5.759
  213MY     H8S 8360   5.045   5.592   5.744
  213MY     C17 8361   5.100   5.706   5.573
  213MY     H7R 8362   5.176   5.780   5.547
  213MY     H7S 8363   5.140   5.613   5.531
  213MY     C16 8364   4.980   5.750   5.496
  213MY     H6R 8365   4.895   5.688   5.523
  213MY     H6S 8366   4.958   5.854   5.518
  213MY     C15 8367   5.008   5.746   5.340
  213MY     H5R 8368   5.066   5.829   5.301
  213MY     H5S 8369   5.066   5.658   5.312
  213MY     C14 8370   4.875   5.736   5.263
  213MY     H4R 8371   4.840   5.634   5.276
  213MY     H4S 8372   4.806   5.803   5.316
  213MY     C13 8373   4.894   5.761   5.114
  213MY     H3R 8374   4.802   5.759   5.055
  213MY     H3S 8375   4.931   5.863   5.103
  213MY     C12 8376   5.004   5.672   5.048
  213MY     H2R 8377   5.098   5.698   5.097
  213MY     H2S 8378   4.973   5.567   5.055
  214MY    H14T 8379   5.383   0.708   5.950
  214MY    C114 8380   5.423   0.653   6.035
  214MY    H14R 8381   5.378   0.703   6.122
  214MY    H14S 8382   5.397   0.548   6.027
  214MY    C113 8383   5.578   0.667   6.037
  214MY    H13R 8384   5.600   0.773   6.049
  214MY    H13S 8385   5.610   0.615   6.127
  214MY    C112 8386   5.645   0.603   5.906
  214MY    H12R 8387   5.753   0.611   5.915
  214MY    H12S 8388   5.621   0.496   5.907
  214MY    C111 8389   5.602   0.669   5.781
  214MY    H11R 8390   5.499   0.653   5.748
  214MY    H11S 8391   5.614   0.778   5.776
  214MY    C110 8392   5.690   0.618   5.661
  214MY    H10R 8393   5.792   0.632   5.699
  214MY    H10S 8394   5.668   0.513   5.645
  214MY     C19 8395   5.664   0.686   5.529
  214MY     H9R 8396   5.557   0.671   5.509
  214MY     H9S 8397   5.679   0.794   5.539
  214MY     C18 8398   5.747   0.633   5.419
  214MY     H8R 8399   5.853   0.635   5.446
  214MY     H8S 8400   5.720   0.529   5.399
  214MY     C17 8401   5.732   0.710   5.285
  214MY     H7R 8402   5.806   0.789   5.266
  214MY     H7S 8403   5.766   0.632   5.217
  214MY     C16 8404   5.589   0.762   5.252
  214MY     H6R 8405   5.514   0.687   5.280
  214MY     H6S 8406   5.567   0.850   5.313
  214MY     C15 8407   5.582   0.787   5.104
  214MY     H5R 8408   5.595   0.691   5.054
  214MY     H5S 8409   5.478   0.804   5.075
  214MY     C14 8410   5.669   0.906   5.058
  214MY     H4R 8411   5.629   1.002   5.090
  214MY     H4S 8412   5.767   0.906   5.105
  214MY     C13 8413   5.678   0.931   4.909
  214MY     H3R 8414   5.740   1.017   4.884
  214MY     H3S 8415   5.735   0.846   4.869
  214MY     C12 8416   5.543   0.942   4.838
  214MY     H2R 8417   5.475   0.858   4.852
  214MY     H2S 8418   5.492   1.033   4.868
  215PC     C11 8419   5.578   0.954   4.692
  215PC     O12 8420   5.607   0.859   4.615
  215PC     O11 8421   5.573   1.076   4.647
  215PC      C1 8422   5.584   1.103   4.506
  215PC      HR 8423   5.644   1.193   4.494
  215PC      HS 8424   5.650   1.034   4.453
  215PC      C2 8425   5.440   1.112   4.438
  215PC      HX 8426   5.376   1.028   4.464
  215PC      C3 8427   5.451   1.104   4.280
  215PC      HA 8428   5.434   1.000   4.251
  215PC      HB 8429   5.358   1.157   4.258
  215PC     O31 8430   5.568   1.178   4.235
  215PC     P31 8431   5.561   1.294   4.123
  215PC     O32 8432   5.512   1.430   4.189
  215PC     C31 8433   5.592   1.497   4.290
  215PC     H1A 8434   5.593   1.435   4.380
  215PC     H1B 8435   5.692   1.514   4.249
  215PC     C32 8436   5.530   1.630   4.328
  215PC     H2A 8437   5.424   1.605   4.343
  215PC     H2B 8438   5.566   1.662   4.426
  215PC     N31 8439   5.521   1.747   4.234
  215PC     C33 8440   5.418   1.839   4.296
  215PC     H3A 8441   5.431   1.827   4.403
  215PC     H3B 8442   5.315   1.817   4.270
  215PC     H3C 8443   5.437   1.940   4.259
  215PC     C34 8444   5.471   1.707   4.095
  215PC     H4A 8445   5.380   1.647   4.102
  215PC     H4B 8446   5.548   1.653   4.040
  215PC     H4C 8447   5.454   1.806   4.052
  215PC     C35 8448   5.655   1.803   4.219
  215PC     H5A 8449   5.716   1.726   4.170
  215PC     H5B 8450   5.688   1.824   4.321
  215PC     H5C 8451   5.642   1.888   4.152
  215PC     O33 8452   5.697   1.311   4.075
  215PC     O34 8453   5.453   1.259   4.028
  215PC     O21 8454   5.387   1.235   4.476
  215PC     C21 8455   5.316   1.237   4.594
  215PC     O22 8456   5.290   1.139   4.657
  216MY    H14T 8457   5.149   1.139   5.947
  216MY    C114 8458   5.248   1.097   5.962
  216MY    H14R 8459   5.315   1.161   6.020
  216MY    H14S 8460   5.237   1.010   6.026
  216MY    C113 8461   5.321   1.040   5.835
  216MY    H13R 8462   5.406   0.980   5.867
  216MY    H13S 8463   5.255   0.964   5.794
  216MY    C112 8464   5.364   1.134   5.721
  216MY    H12R 8465   5.271   1.167   5.674
  216MY    H12S 8466   5.420   1.221   5.756
  216MY    C111 8467   5.446   1.058   5.612
  216MY    H11R 8468   5.527   0.999   5.656
  216MY    H11S 8469   5.377   0.995   5.555
  216MY    C110 8470   5.501   1.164   5.509
  216MY    H10R 8471   5.575   1.231   5.552
  216MY    H10S 8472   5.563   1.112   5.436
  216MY     C19 8473   5.389   1.238   5.428
  216MY     H9R 8474   5.313   1.168   5.395
  216MY     H9S 8475   5.332   1.304   5.494
  216MY     C18 8476   5.440   1.317   5.307
  216MY     H8R 8477   5.358   1.384   5.279
  216MY     H8S 8478   5.527   1.379   5.330
  216MY     C17 8479   5.475   1.219   5.195
  216MY     H7R 8480   5.561   1.161   5.229
  216MY     H7S 8481   5.394   1.149   5.172
  216MY     C16 8482   5.515   1.286   5.064
  216MY     H6R 8483   5.589   1.366   5.068
  216MY     H6S 8484   5.560   1.215   4.994
  216MY     C15 8485   5.392   1.359   5.003
  216MY     H5R 8486   5.300   1.306   5.027
  216MY     H5S 8487   5.401   1.459   5.046
  216MY     C14 8488   5.406   1.372   4.857
  216MY     H4R 8489   5.496   1.424   4.823
  216MY     H4S 8490   5.428   1.270   4.825
  216MY     C13 8491   5.276   1.411   4.789
  216MY     H3R 8492   5.191   1.352   4.824
  216MY     H3S 8493   5.256   1.517   4.805
  216MY     C12 8494   5.289   1.380   4.634
  216MY     H2R 8495   5.191   1.405   4.591
  216MY     H2S 8496   5.358   1.447   4.584
  217MY    H14T 8497   1.243   4.305   6.240
  217MY    C114 8498   1.345   4.266   6.240
  217MY    H14R 8499   1.359   4.210   6.332
  217MY    H14S 8500   1.354   4.194   6.158
  217MY    C113 8501   1.454   4.371   6.227
  217MY    H13R 8502   1.440   4.455   6.296
  217MY    H13S 8503   1.555   4.335   6.247
  217MY    C112 8504   1.444   4.436   6.092
  217MY    H12R 8505   1.432   4.355   6.021
  217MY    H12S 8506   1.350   4.491   6.092
  217MY    C111 8507   1.555   4.532   6.039
  217MY    H11R 8508   1.581   4.601   6.119
  217MY    H11S 8509   1.643   4.468   6.025
  217MY    C110 8510   1.512   4.588   5.907
  217MY    H10R 8511   1.464   4.507   5.852
  217MY    H10S 8512   1.447   4.674   5.924
  217MY     C19 8513   1.628   4.637   5.818
  217MY     H9R 8514   1.671   4.728   5.861
  217MY     H9S 8515   1.710   4.565   5.823
  217MY     C18 8516   1.592   4.677   5.672
  217MY     H8R 8517   1.518   4.757   5.677
  217MY     H8S 8518   1.679   4.724   5.625
  217MY     C17 8519   1.521   4.575   5.583
  217MY     H7R 8520   1.585   4.488   5.599
  217MY     H7S 8521   1.425   4.561   5.634
  217MY     C16 8522   1.507   4.599   5.432
  217MY     H6R 8523   1.442   4.685   5.414
  217MY     H6S 8524   1.606   4.614   5.389
  217MY     C15 8525   1.457   4.469   5.362
  217MY     H5R 8526   1.367   4.429   5.409
  217MY     H5S 8527   1.432   4.512   5.264
  217MY     C14 8528   1.567   4.363   5.340
  217MY     H4R 8529   1.658   4.413   5.306
  217MY     H4S 8530   1.591   4.316   5.436
  217MY     C13 8531   1.521   4.257   5.240
  217MY     H3R 8532   1.592   4.174   5.240
  217MY     H3S 8533   1.424   4.217   5.270
  217MY     C12 8534   1.493   4.309   5.092
  217MY     H2R 8535   1.430   4.234   5.043
  217MY     H2S 8536   1.438   4.403   5.084
  218PC     C11 8537   1.615   4.317   5.006
  218PC     O12 8538   1.723   4.281   5.054
  218PC     O11 8539   1.584   4.347   4.883
  218PC      C1 8540   1.678   4.336   4.772
  218PC      HR 8541   1.647   4.420   4.710
  218PC      HS 8542   1.782   4.357   4.799
  218PC      C2 8543   1.664   4.201   4.699
  218PC      HX 8544   1.737   4.194   4.617
  218PC      C3 8545   1.533   4.159   4.644
  218PC      HA 8546   1.531   4.070   4.581
  218PC      HB 8547   1.473   4.127   4.730
  218PC     O31 8548   1.449   4.258   4.587
  218PC     P31 8549   1.476   4.321   4.440
  218PC     O32 8550   1.376   4.242   4.351
  218PC     C31 8551   1.235   4.261   4.361
  218PC     H1A 8552   1.194   4.170   4.404
  218PC     H1B 8553   1.214   4.341   4.433
  218PC     C32 8554   1.181   4.304   4.227
  218PC     H2A 8555   1.087   4.359   4.233
  218PC     H2B 8556   1.252   4.374   4.183
  218PC     N31 8557   1.142   4.204   4.117
  218PC     C33 8558   1.110   4.278   4.000
  218PC     H3A 8559   1.074   4.212   3.921
  218PC     H3B 8560   1.198   4.334   3.968
  218PC     H3C 8561   1.027   4.347   4.018
  218PC     C34 8562   1.022   4.131   4.160
  218PC     H4A 8563   0.991   4.053   4.090
  218PC     H4B 8564   0.942   4.205   4.170
  218PC     H4C 8565   1.053   4.082   4.252
  218PC     C35 8566   1.250   4.114   4.085
  218PC     H5A 8567   1.289   4.076   4.180
  218PC     H5B 8568   1.326   4.169   4.028
  218PC     H5C 8569   1.215   4.032   4.023
  218PC     O33 8570   1.429   4.460   4.449
  218PC     O34 8571   1.615   4.298   4.387
  218PC     O21 8572   1.698   4.088   4.784
  218PC     C21 8573   1.826   4.065   4.813
  218PC     O22 8574   1.922   4.116   4.759
  219MY    H14T 8575   2.610   3.671   6.162
  219MY    C114 8576   2.635   3.600   6.084
  219MY    H14R 8577   2.743   3.590   6.073
  219MY    H14S 8578   2.579   3.509   6.108
  219MY    C113 8579   2.585   3.666   5.954
  219MY    H13R 8580   2.476   3.675   5.956
  219MY    H13S 8581   2.633   3.763   5.944
  219MY    C112 8582   2.613   3.567   5.841
  219MY    H12R 8583   2.719   3.544   5.846
  219MY    H12S 8584   2.571   3.468   5.863
  219MY    C111 8585   2.588   3.616   5.696
  219MY    H11R 8586   2.642   3.710   5.686
  219MY    H11S 8587   2.632   3.538   5.634
  219MY    C110 8588   2.439   3.636   5.671
  219MY    H10R 8589   2.387   3.541   5.680
  219MY    H10S 8590   2.398   3.707   5.744
  219MY     C19 8591   2.412   3.679   5.526
  219MY     H9R 8592   2.487   3.748   5.488
  219MY     H9S 8593   2.432   3.589   5.468
  219MY     C18 8594   2.267   3.715   5.498
  219MY     H8R 8595   2.195   3.632   5.495
  219MY     H8S 8596   2.235   3.773   5.585
  219MY     C17 8597   2.249   3.795   5.371
  219MY     H7R 8598   2.298   3.891   5.382
  219MY     H7S 8599   2.301   3.741   5.291
  219MY     C16 8600   2.101   3.806   5.325
  219MY     H6R 8601   2.055   3.708   5.321
  219MY     H6S 8602   2.044   3.864   5.397
  219MY     C15 8603   2.105   3.869   5.186
  219MY     H5R 8604   2.153   3.967   5.186
  219MY     H5S 8605   2.169   3.810   5.120
  219MY     C14 8606   1.965   3.892   5.126
  219MY     H4R 8607   1.913   3.796   5.116
  219MY     H4S 8608   1.913   3.966   5.188
  219MY     C13 8609   1.982   3.960   4.986
  219MY     H3R 8610   2.024   4.060   4.997
  219MY     H3S 8611   2.039   3.896   4.919
  219MY     C12 8612   1.834   3.982   4.938
  219MY     H2R 8613   1.790   3.884   4.916
  219MY     H2S 8614   1.772   4.024   5.018
  220MY    H14T 8615   3.027   3.852   6.026
  220MY    C114 8616   3.027   3.743   6.012
  220MY    H14R 8617   3.108   3.716   6.080
  220MY    H14S 8618   2.936   3.695   6.051
  220MY    C113 8619   3.059   3.701   5.872
  220MY    H13R 8620   2.970   3.709   5.809
  220MY    H13S 8621   3.137   3.767   5.832
  220MY    C112 8622   3.090   3.546   5.857
  220MY    H12R 8623   3.146   3.513   5.944
  220MY    H12S 8624   2.990   3.502   5.865
  220MY    C111 8625   3.167   3.517   5.729
  220MY    H11R 8626   3.256   3.573   5.757
  220MY    H11S 8627   3.184   3.409   5.726
  220MY    C110 8628   3.112   3.569   5.595
  220MY    H10R 8629   3.006   3.542   5.592
  220MY    H10S 8630   3.129   3.677   5.603
  220MY     C19 8631   3.208   3.525   5.484
  220MY     H9R 8632   3.208   3.599   5.403
  220MY     H9S 8633   3.309   3.514   5.525
  220MY     C18 8634   3.170   3.385   5.427
  220MY     H8R 8635   3.188   3.315   5.508
  220MY     H8S 8636   3.064   3.393   5.405
  220MY     C17 8637   3.246   3.340   5.298
  220MY     H7R 8638   3.239   3.420   5.224
  220MY     H7S 8639   3.352   3.329   5.319
  220MY     C16 8640   3.215   3.198   5.250
  220MY     H6R 8641   3.313   3.158   5.221
  220MY     H6S 8642   3.171   3.138   5.329
  220MY     C15 8643   3.110   3.195   5.140
  220MY     H5R 8644   3.018   3.238   5.178
  220MY     H5S 8645   3.155   3.261   5.066
  220MY     C14 8646   3.078   3.044   5.088
  220MY     H4R 8647   3.056   2.973   5.168
  220MY     H4S 8648   2.994   3.053   5.019
  220MY     C13 8649   3.199   2.992   5.010
  220MY     H3R 8650   3.230   3.057   4.928
  220MY     H3S 8651   3.281   2.983   5.081
  220MY     C12 8652   3.185   2.852   4.951
  220MY     H2R 8653   3.140   2.789   5.028
  220MY     H2S 8654   3.113   2.854   4.869
  221PC     C11 8655   3.318   2.794   4.914
  221PC     O12 8656   3.425   2.846   4.922
  221PC     O11 8657   3.298   2.666   4.857
  221PC      C1 8658   3.417   2.597   4.808
  221PC      HR 8659   3.464   2.678   4.752
  221PC      HS 8660   3.479   2.568   4.893
  221PC      C2 8661   3.398   2.473   4.717
  221PC      HX 8662   3.491   2.427   4.682
  221PC      C3 8663   3.327   2.508   4.579
  221PC      HA 8664   3.323   2.413   4.526
  221PC      HB 8665   3.223   2.537   4.599
  221PC     O31 8666   3.389   2.618   4.508
  221PC     P31 8667   3.506   2.595   4.400
  221PC     O32 8668   3.423   2.537   4.286
  221PC     C31 8669   3.353   2.623   4.188
  221PC     H1A 8670   3.299   2.696   4.249
  221PC     H1B 8671   3.424   2.680   4.126
  221PC     C32 8672   3.272   2.531   4.098
  221PC     H2A 8673   3.344   2.473   4.041
  221PC     H2B 8674   3.209   2.458   4.149
  221PC     N31 8675   3.192   2.592   3.998
  221PC     C33 8676   3.100   2.696   4.058
  221PC     H3A 8677   3.159   2.781   4.092
  221PC     H3B 8678   3.049   2.643   4.138
  221PC     H3C 8679   3.028   2.726   3.982
  221PC     C34 8680   3.102   2.492   3.930
  221PC     H4A 8681   3.026   2.537   3.867
  221PC     H4B 8682   3.047   2.431   4.001
  221PC     H4C 8683   3.161   2.420   3.873
  221PC     C35 8684   3.269   2.666   3.903
  221PC     H5A 8685   3.189   2.710   3.844
  221PC     H5B 8686   3.320   2.598   3.836
  221PC     H5C 8687   3.332   2.744   3.946
  221PC     O33 8688   3.560   2.725   4.367
  221PC     O34 8689   3.596   2.496   4.458
  221PC     O21 8690   3.317   2.380   4.795
  221PC     C21 8691   3.372   2.309   4.891
  221PC     O22 8692   3.492   2.287   4.893
  222MY    H14T 8693   3.333   1.336   6.169
  222MY    C114 8694   3.266   1.384   6.241
  222MY    H14R 8695   3.168   1.347   6.213
  222MY    H14S 8696   3.304   1.339   6.333
  222MY    C113 8697   3.267   1.540   6.235
  222MY    H13R 8698   3.218   1.571   6.327
  222MY    H13S 8699   3.368   1.582   6.240
  222MY    C112 8700   3.182   1.602   6.115
  222MY    H12R 8701   3.086   1.554   6.095
  222MY    H12S 8702   3.157   1.704   6.144
  222MY    C111 8703   3.257   1.613   5.982
  222MY    H11R 8704   3.351   1.663   6.010
  222MY    H11S 8705   3.276   1.516   5.936
  222MY    C110 8706   3.185   1.700   5.869
  222MY    H10R 8707   3.105   1.638   5.827
  222MY    H10S 8708   3.136   1.791   5.904
  222MY     C19 8709   3.275   1.758   5.763
  222MY     H9R 8710   3.335   1.831   5.818
  222MY     H9S 8711   3.339   1.679   5.723
  222MY     C18 8712   3.204   1.841   5.646
  222MY     H8R 8713   3.109   1.791   5.628
  222MY     H8S 8714   3.185   1.944   5.676
  222MY     C17 8715   3.285   1.849   5.517
  222MY     H7R 8716   3.383   1.881   5.553
  222MY     H7S 8717   3.297   1.747   5.481
  222MY     C16 8718   3.221   1.942   5.417
  222MY     H6R 8719   3.125   1.897   5.390
  222MY     H6S 8720   3.204   2.040   5.461
  222MY     C15 8721   3.301   1.991   5.295
  222MY     H5R 8722   3.391   2.029   5.344
  222MY     H5S 8723   3.332   1.905   5.236
  222MY     C14 8724   3.240   2.103   5.211
  222MY     H4R 8725   3.149   2.068   5.162
  222MY     H4S 8726   3.206   2.182   5.279
  222MY     C13 8727   3.332   2.165   5.102
  222MY     H3R 8728   3.419   2.211   5.147
  222MY     H3S 8729   3.367   2.079   5.044
  222MY     C12 8730   3.276   2.262   4.995
  222MY     H2R 8731   3.188   2.216   4.949
  222MY     H2S 8732   3.234   2.345   5.052
  223MY    H14T 8733   5.625   1.344   6.095
  223MY    C114 8734   5.608   1.416   6.015
  223MY    H14R 8735   5.690   1.487   6.003
  223MY    H14S 8736   5.599   1.358   5.923
  223MY    C113 8737   5.475   1.486   6.047
  223MY    H13R 8738   5.394   1.413   6.038
  223MY    H13S 8739   5.466   1.522   6.150
  223MY    C112 8740   5.453   1.609   5.956
  223MY    H12R 8741   5.369   1.656   6.008
  223MY    H12S 8742   5.532   1.684   5.965
  223MY    C111 8743   5.441   1.583   5.807
  223MY    H11R 8744   5.529   1.528   5.774
  223MY    H11S 8745   5.362   1.508   5.798
  223MY    C110 8746   5.405   1.703   5.716
  223MY    H10R 8747   5.333   1.767   5.767
  223MY    H10S 8748   5.502   1.751   5.702
  223MY     C19 8749   5.348   1.650   5.582
  223MY     H9R 8750   5.418   1.580   5.536
  223MY     H9S 8751   5.257   1.595   5.601
  223MY     C18 8752   5.332   1.769   5.484
  223MY     H8R 8753   5.268   1.844   5.529
  223MY     H8S 8754   5.433   1.802   5.456
  223MY     C17 8755   5.260   1.716   5.362
  223MY     H7R 8756   5.306   1.623   5.328
  223MY     H7S 8757   5.157   1.687   5.381
  223MY     C16 8758   5.272   1.808   5.237
  223MY     H6R 8759   5.268   1.914   5.262
  223MY     H6S 8760   5.371   1.810   5.191
  223MY     C15 8761   5.166   1.772   5.129
  223MY     H5R 8762   5.204   1.682   5.080
  223MY     H5S 8763   5.065   1.755   5.168
  223MY     C14 8764   5.154   1.881   5.020
  223MY     H4R 8765   5.137   1.979   5.065
  223MY     H4S 8766   5.245   1.879   4.960
  223MY     C13 8767   5.031   1.853   4.935
  223MY     H3R 8768   5.045   1.762   4.876
  223MY     H3S 8769   4.950   1.827   5.003
  223MY     C12 8770   4.995   1.976   4.838
  223MY     H2R 8771   4.898   1.949   4.794
  223MY     H2S 8772   4.974   2.068   4.893
  224PC     C11 8773   5.097   1.996   4.725
  224PC     O12 8774   5.192   1.921   4.716
  224PC     O11 8775   5.072   2.095   4.639
  224PC      C1 8776   5.170   2.117   4.533
  224PC      HR 8777   5.228   2.030   4.502
  224PC      HS 8778   5.116   2.145   4.443
  224PC      C2 8779   5.277   2.233   4.561
  224PC      HX 8780   5.224   2.321   4.600
  224PC      C3 8781   5.352   2.277   4.428
  224PC      HA 8782   5.297   2.343   4.360
  224PC      HB 8783   5.433   2.345   4.456
  224PC     O31 8784   5.403   2.168   4.350
  224PC     P31 8785   5.534   2.186   4.268
  224PC     O32 8786   5.526   2.337   4.208
  224PC     C31 8787   5.438   2.373   4.095
  224PC     H1A 8788   5.350   2.310   4.080
  224PC     H1B 8789   5.397   2.474   4.107
  224PC     C32 8790   5.529   2.381   3.966
  224PC     H2A 8791   5.585   2.288   3.951
  224PC     H2B 8792   5.458   2.397   3.885
  224PC     N31 8793   5.623   2.502   3.959
  224PC     C33 8794   5.537   2.631   3.977
  224PC     H3A 8795   5.602   2.719   3.977
  224PC     H3B 8796   5.482   2.634   4.071
  224PC     H3C 8797   5.465   2.627   3.895
  224PC     C34 8798   5.690   2.500   3.823
  224PC     H4A 8799   5.616   2.457   3.755
  224PC     H4B 8800   5.782   2.444   3.837
  224PC     H4C 8801   5.711   2.603   3.791
  224PC     C35 8802   5.731   2.508   4.053
  224PC     H5A 8803   5.787   2.415   4.038
  224PC     H5B 8804   5.688   2.519   4.152
  224PC     H5C 8805   5.795   2.593   4.029
  224PC     O33 8806   5.647   2.180   4.357
  224PC     O34 8807   5.529   2.097   4.150
  224PC     O21 8808   5.366   2.181   4.659
  224PC     C21 8809   5.413   2.265   4.757
  224PC     O22 8810   5.405   2.386   4.750
  225MY    H14T 8811   5.376   2.832   5.931
  225MY    C114 8812   5.376   2.928   5.878
  225MY    H14R 8813   5.279   2.964   5.913
  225MY    H14S 8814   5.449   2.996   5.923
  225MY    C113 8815   5.386   2.909   5.721
  225MY    H13R 8816   5.372   3.007   5.676
  225MY    H13S 8817   5.487   2.871   5.704
  225MY    C112 8818   5.283   2.798   5.670
  225MY    H12R 8819   5.309   2.705   5.720
  225MY    H12S 8820   5.181   2.830   5.694
  225MY    C111 8821   5.291   2.768   5.518
  225MY    H11R 8822   5.255   2.859   5.468
  225MY    H11S 8823   5.392   2.750   5.483
  225MY    C110 8824   5.196   2.652   5.473
  225MY    H10R 8825   5.104   2.673   5.528
  225MY    H10S 8826   5.181   2.660   5.365
  225MY     C19 8827   5.241   2.511   5.509
  225MY     H9R 8828   5.332   2.497   5.451
  225MY     H9S 8829   5.283   2.510   5.610
  225MY     C18 8830   5.145   2.396   5.472
  225MY     H8R 8831   5.060   2.413   5.538
  225MY     H8S 8832   5.114   2.412   5.368
  225MY     C17 8833   5.209   2.252   5.479
  225MY     H7R 8834   5.259   2.244   5.576
  225MY     H7S 8835   5.126   2.181   5.485
  225MY     C16 8836   5.313   2.205   5.370
  225MY     H6R 8837   5.391   2.281   5.375
  225MY     H6S 8838   5.345   2.106   5.403
  225MY     C15 8839   5.254   2.214   5.231
  225MY     H5R 8840   5.167   2.149   5.218
  225MY     H5S 8841   5.215   2.314   5.210
  225MY     C14 8842   5.361   2.180   5.123
  225MY     H4R 8843   5.455   2.226   5.154
  225MY     H4S 8844   5.376   2.072   5.121
  225MY     C13 8845   5.332   2.229   4.982
  225MY     H3R 8846   5.239   2.182   4.949
  225MY     H3S 8847   5.309   2.336   4.988
  225MY     C12 8848   5.442   2.202   4.882
  225MY     H2R 8849   5.541   2.238   4.914
  225MY     H2S 8850   5.458   2.095   4.869
  226MY    H14T 8851   4.252   4.534   6.007
  226MY    C114 8852   4.274   4.499   5.906
  226MY    H14R 8853   4.376   4.463   5.895
  226MY    H14S 8854   4.200   4.421   5.888
  226MY    C113 8855   4.262   4.620   5.809
  226MY    H13R 8856   4.327   4.695   5.855
  226MY    H13S 8857   4.295   4.605   5.706
  226MY    C112 8858   4.116   4.682   5.795
  226MY    H12R 8859   4.069   4.681   5.894
  226MY    H12S 8860   4.124   4.788   5.769
  226MY    C111 8861   4.027   4.601   5.700
  226MY    H11R 8862   4.010   4.504   5.747
  226MY    H11S 8863   3.936   4.660   5.702
  226MY    C110 8864   4.066   4.586   5.548
  226MY    H10R 8865   4.166   4.544   5.538
  226MY    H10S 8866   3.997   4.515   5.501
  226MY     C19 8867   4.053   4.722   5.469
  226MY     H9R 8868   3.971   4.788   5.500
  226MY     H9S 8869   4.143   4.782   5.486
  226MY     C18 8870   4.042   4.696   5.312
  226MY     H8R 8871   3.943   4.654   5.297
  226MY     H8S 8872   4.045   4.791   5.259
  226MY     C17 8873   4.157   4.604   5.259
  226MY     H7R 8874   4.254   4.636   5.298
  226MY     H7S 8875   4.145   4.502   5.296
  226MY     C16 8876   4.148   4.596   5.105
  226MY     H6R 8877   4.215   4.517   5.070
  226MY     H6S 8878   4.050   4.563   5.070
  226MY     C15 8879   4.222   4.717   5.029
  226MY     H5R 8880   4.295   4.754   5.102
  226MY     H5S 8881   4.286   4.675   4.951
  226MY     C14 8882   4.127   4.829   4.982
  226MY     H4R 8883   4.098   4.880   5.074
  226MY     H4S 8884   4.177   4.909   4.926
  226MY     C13 8885   4.002   4.782   4.911
  226MY     H3R 8886   4.027   4.707   4.836
  226MY     H3S 8887   3.938   4.740   4.988
  226MY     C12 8888   3.922   4.903   4.841
  226MY     H2R 8889   3.907   4.967   4.928
  226MY     H2S 8890   3.983   4.948   4.762
  227PC     C11 8891   3.794   4.862   4.769
  227PC     O12 8892   3.777   4.767   4.695
  227PC     O11 8893   3.697   4.946   4.803
  227PC      C1 8894   3.560   4.928   4.747
  227PC      HR 8895   3.563   4.899   4.642
  227PC      HS 8896   3.503   4.843   4.785
  227PC      C2 8897   3.483   5.059   4.753
  227PC      HX 8898   3.376   5.042   4.739
  227PC      C3 8899   3.537   5.163   4.654
  227PC      HA 8900   3.488   5.257   4.678
  227PC      HB 8901   3.646   5.162   4.646
  227PC     O31 8902   3.489   5.131   4.520
  227PC     P31 8903   3.585   5.144   4.390
  227PC     O32 8904   3.708   5.047   4.432
  227PC     C31 8905   3.714   4.905   4.390
  227PC     H1A 8906   3.790   4.848   4.444
  227PC     H1B 8907   3.617   4.854   4.402
  227PC     C32 8908   3.760   4.912   4.244
  227PC     H2A 8909   3.686   4.963   4.181
  227PC     H2B 8910   3.853   4.967   4.233
  227PC     N31 8911   3.791   4.784   4.172
  227PC     C33 8912   3.895   4.698   4.223
  227PC     H3A 8913   3.931   4.632   4.144
  227PC     H3B 8914   3.866   4.647   4.315
  227PC     H3C 8915   3.981   4.764   4.236
  227PC     C34 8916   3.820   4.818   4.028
  227PC     H4A 8917   3.733   4.871   3.988
  227PC     H4B 8918   3.841   4.738   3.958
  227PC     H4C 8919   3.905   4.886   4.037
  227PC     C35 8920   3.664   4.702   4.171
  227PC     H5A 8921   3.642   4.669   4.272
  227PC     H5B 8922   3.677   4.612   4.111
  227PC     H5C 8923   3.584   4.768   4.135
  227PC     O33 8924   3.523   5.081   4.268
  227PC     O34 8925   3.644   5.276   4.385
  227PC     O21 8926   3.495   5.112   4.896
  227PC     C21 8927   3.462   5.035   5.001
  227PC     O22 8928   3.418   4.920   5.000
  228MY    H14T 8929   4.448   5.388   6.031
  228MY    C114 8930   4.414   5.344   6.125
  228MY    H14R 8931   4.490   5.276   6.163
  228MY    H14S 8932   4.392   5.428   6.192
  228MY    C113 8933   4.281   5.271   6.087
  228MY    H13R 8934   4.217   5.244   6.171
  228MY    H13S 8935   4.227   5.346   6.030
  228MY    C112 8936   4.315   5.149   6.000
  228MY    H12R 8937   4.359   5.171   5.902
  228MY    H12S 8938   4.373   5.082   6.064
  228MY    C111 8939   4.186   5.081   5.957
  228MY    H11R 8940   4.207   4.985   5.912
  228MY    H11S 8941   4.122   5.057   6.042
  228MY    C110 8942   4.101   5.167   5.855
  228MY    H10R 8943   4.075   5.266   5.894
  228MY    H10S 8944   4.162   5.176   5.765
  228MY     C19 8945   3.969   5.082   5.836
  228MY     H9R 8946   3.992   4.980   5.804
  228MY     H9S 8947   3.917   5.085   5.932
  228MY     C18 8948   3.870   5.138   5.731
  228MY     H8R 8949   3.785   5.069   5.725
  228MY     H8S 8950   3.834   5.238   5.752
  228MY     C17 8951   3.934   5.127   5.589
  228MY     H7R 8952   4.005   5.210   5.585
  228MY     H7S 8953   4.001   5.041   5.584
  228MY     C16 8954   3.842   5.161   5.470
  228MY     H6R 8955   3.801   5.260   5.488
  228MY     H6S 8956   3.905   5.166   5.381
  228MY     C15 8957   3.737   5.056   5.436
  228MY     H5R 8958   3.786   4.976   5.381
  228MY     H5S 8959   3.688   5.004   5.519
  228MY     C14 8960   3.629   5.106   5.343
  228MY     H4R 8961   3.535   5.132   5.392
  228MY     H4S 8962   3.668   5.201   5.305
  228MY     C13 8963   3.602   5.018   5.213
  228MY     H3R 8964   3.688   4.994   5.150
  228MY     H3S 8965   3.553   4.926   5.245
  228MY     C12 8966   3.499   5.104   5.135
  228MY     H2R 8967   3.408   5.119   5.194
  228MY     H2S 8968   3.533   5.206   5.119
  229MY    H14T 8969   1.737   4.597   6.470
  229MY    C114 8970   1.776   4.538   6.387
  229MY    H14R 8971   1.712   4.451   6.370
  229MY    H14S 8972   1.763   4.607   6.303
  229MY    C113 8973   1.919   4.497   6.405
  229MY    H13R 8974   1.971   4.567   6.471
  229MY    H13S 8975   1.904   4.396   6.444
  229MY    C112 8976   1.984   4.485   6.267
  229MY    H12R 8977   1.965   4.384   6.230
  229MY    H12S 8978   1.949   4.567   6.205
  229MY    C111 8979   2.134   4.503   6.277
  229MY    H11R 8980   2.156   4.602   6.318
  229MY    H11S 8981   2.181   4.427   6.339
  229MY    C110 8982   2.195   4.489   6.138
  229MY    H10R 8983   2.169   4.392   6.094
  229MY    H10S 8984   2.136   4.561   6.081
  229MY     C19 8985   2.342   4.524   6.120
  229MY     H9R 8986   2.358   4.624   6.161
  229MY     H9S 8987   2.402   4.458   6.183
  229MY     C18 8988   2.393   4.500   5.974
  229MY     H8R 8989   2.496   4.536   5.973
  229MY     H8S 8990   2.386   4.392   5.963
  229MY     C17 8991   2.312   4.572   5.865
  229MY     H7R 8992   2.209   4.538   5.854
  229MY     H7S 8993   2.313   4.681   5.880
  229MY     C16 8994   2.370   4.558   5.722
  229MY     H6R 8995   2.468   4.604   5.736
  229MY     H6S 8996   2.383   4.450   5.706
  229MY     C15 8997   2.301   4.623   5.601
  229MY     H5R 8998   2.219   4.554   5.579
  229MY     H5S 8999   2.264   4.721   5.632
  229MY     C14 9000   2.393   4.637   5.473
  229MY     H4R 9001   2.467   4.714   5.496
  229MY     H4S 9002   2.443   4.543   5.449
  229MY     C13 9003   2.314   4.673   5.349
  229MY     H3R 9004   2.376   4.637   5.266
  229MY     H3S 9005   2.222   4.615   5.343
  229MY     C12 9006   2.302   4.828   5.331
  229MY     H2R 9007   2.213   4.865   5.382
  229MY     H2S 9008   2.397   4.872   5.364
  230PC     C11 9009   2.278   4.871   5.192
  230PC     O12 9010   2.373   4.894   5.117
  230PC     O11 9011   2.149   4.885   5.158
  230PC      C1 9012   2.115   4.917   5.023
  230PC      HR 9013   2.012   4.955   5.022
  230PC      HS 9014   2.172   5.005   4.993
  230PC      C2 9015   2.119   4.800   4.923
  230PC      HX 9016   2.221   4.765   4.905
  230PC      C3 9017   2.066   4.837   4.782
  230PC      HA 9018   2.115   4.778   4.704
  230PC      HB 9019   1.960   4.812   4.779
  230PC     O31 9020   2.081   4.976   4.745
  230PC     P31 9021   2.200   5.029   4.661
  230PC     O32 9022   2.188   4.947   4.531
  230PC     C31 9023   2.081   4.979   4.435
  230PC     H1A 9024   2.018   5.057   4.479
  230PC     H1B 9025   2.120   5.008   4.337
  230PC     C32 9026   1.997   4.848   4.435
  230PC     H2A 9027   2.053   4.760   4.404
  230PC     H2B 9028   1.960   4.839   4.537
  230PC     N31 9029   1.872   4.843   4.347
  230PC     C33 9030   1.918   4.880   4.206
  230PC     H3A 9031   1.842   4.835   4.142
  230PC     H3B 9032   2.012   4.829   4.186
  230PC     H3C 9033   1.935   4.988   4.207
  230PC     C34 9034   1.767   4.945   4.392
  230PC     H4A 9035   1.800   5.048   4.393
  230PC     H4B 9036   1.736   4.919   4.494
  230PC     H4C 9037   1.688   4.928   4.319
  230PC     C35 9038   1.817   4.702   4.337
  230PC     H5A 9039   1.749   4.683   4.254
  230PC     H5B 9040   1.764   4.688   4.432
  230PC     H5C 9041   1.896   4.627   4.342
  230PC     O33 9042   2.183   5.174   4.634
  230PC     O34 9043   2.322   4.991   4.733
  230PC     O21 9044   2.038   4.687   4.966
  230PC     C21 9045   2.096   4.581   5.028
  230PC     O22 9046   2.215   4.582   5.057
  231MY    H14T 9047   1.854   3.928   6.228
  231MY    C114 9048   1.767   3.982   6.266
  231MY    H14R 9049   1.679   3.949   6.211
  231MY    H14S 9050   1.765   3.958   6.373
  231MY    C113 9051   1.800   4.131   6.231
  231MY    H13R 9052   1.704   4.182   6.245
  231MY    H13S 9053   1.880   4.159   6.301
  231MY    C112 9054   1.848   4.168   6.085
  231MY    H12R 9055   1.762   4.148   6.022
  231MY    H12S 9056   1.857   4.277   6.085
  231MY    C111 9057   1.975   4.096   6.042
  231MY    H11R 9058   2.063   4.133   6.096
  231MY    H11S 9059   1.967   3.988   6.056
  231MY    C110 9060   2.000   4.120   5.891
  231MY    H10R 9061   2.087   4.062   5.860
  231MY    H10S 9062   1.910   4.089   5.838
  231MY     C19 9063   2.024   4.265   5.854
  231MY     H9R 9064   1.944   4.332   5.885
  231MY     H9S 9065   2.119   4.287   5.902
  231MY     C18 9066   2.045   4.274   5.701
  231MY     H8R 9067   2.083   4.375   5.680
  231MY     H8S 9068   2.117   4.200   5.667
  231MY     C17 9069   1.909   4.257   5.622
  231MY     H7R 9070   1.862   4.159   5.628
  231MY     H7S 9071   1.835   4.330   5.656
  231MY     C16 9072   1.932   4.296   5.469
  231MY     H6R 9073   2.004   4.224   5.429
  231MY     H6S 9074   1.839   4.278   5.415
  231MY     C15 9075   1.978   4.436   5.433
  231MY     H5R 9076   1.921   4.512   5.486
  231MY     H5S 9077   2.085   4.445   5.454
  231MY     C14 9078   1.970   4.487   5.283
  231MY     H4R 9079   1.865   4.498   5.254
  231MY     H4S 9080   2.010   4.588   5.288
  231MY     C13 9081   2.025   4.389   5.176
  231MY     H3R 9082   2.127   4.365   5.205
  231MY     H3S 9083   1.972   4.293   5.172
  231MY     C12 9084   2.007   4.463   5.040
  231MY     H2R 9085   2.029   4.393   4.959
  231MY     H2S 9086   1.905   4.501   5.029
  232MY    H14T 9087   0.197   2.371   6.274
  232MY    C114 9088   0.281   2.327   6.220
  232MY    H14R 9089   0.369   2.387   6.241
  232MY    H14S 9090   0.288   2.228   6.265
  232MY    C113 9091   0.281   2.314   6.064
  232MY    H13R 9092   0.214   2.234   6.032
  232MY    H13S 9093   0.239   2.409   6.030
  232MY    C112 9094   0.419   2.305   5.992
  232MY    H12R 9095   0.467   2.402   6.007
  232MY    H12S 9096   0.486   2.234   6.041
  232MY    C111 9097   0.432   2.280   5.837
  232MY    H11R 9098   0.382   2.364   5.790
  232MY    H11S 9099   0.538   2.280   5.808
  232MY    C110 9100   0.370   2.142   5.805
  232MY    H10R 9101   0.404   2.068   5.878
  232MY    H10S 9102   0.261   2.143   5.815
  232MY     C19 9103   0.413   2.115   5.657
  232MY     H9R 9104   0.396   2.201   5.591
  232MY     H9S 9105   0.521   2.097   5.654
  232MY     C18 9106   0.334   1.995   5.609
  232MY     H8R 9107   0.386   1.967   5.518
  232MY     H8S 9108   0.340   1.912   5.679
  232MY     C17 9109   0.181   2.026   5.586
  232MY     H7R 9110   0.131   2.038   5.683
  232MY     H7S 9111   0.164   2.125   5.542
  232MY     C16 9112   0.113   1.921   5.491
  232MY     H6R 9113   0.188   1.882   5.423
  232MY     H6S 9114   0.092   1.833   5.552
  232MY     C15 9115  -0.012   1.969   5.416
  232MY     H5R 9116  -0.071   2.036   5.480
  232MY     H5S 9117   0.022   2.040   5.340
  232MY     C14 9118  -0.105   1.853   5.386
  232MY     H4R 9119  -0.145   1.806   5.476
  232MY     H4S 9120  -0.201   1.887   5.346
  232MY     C13 9121  -0.045   1.752   5.291
  232MY     H3R 9122   0.037   1.693   5.331
  232MY     H3S 9123  -0.126   1.683   5.269
  232MY     C12 9124   0.004   1.812   5.156
  232MY     H2R 9125  -0.059   1.893   5.118
  232MY     H2S 9126   0.105   1.849   5.177
  233PC     C11 9127   0.006   1.708   5.050
  233PC     O12 9128  -0.087   1.693   4.975
  233PC     O11 9129   0.118   1.635   5.048
  233PC      C1 9130   0.127   1.513   4.967
  233PC      HR 9131   0.069   1.439   5.023
  233PC      HS 9132   0.071   1.531   4.874
  233PC      C2 9133   0.270   1.473   4.938
  233PC      HX 9134   0.304   1.553   4.872
  233PC      C3 9135   0.262   1.337   4.861
  233PC      HA 9136   0.210   1.256   4.913
  233PC      HB 9137   0.203   1.351   4.770
  233PC     O31 9138   0.399   1.289   4.825
  233PC     P31 9139   0.458   1.310   4.684
  233PC     O32 9140   0.389   1.208   4.586
  233PC     C31 9141   0.457   1.083   4.567
  233PC     H1A 9142   0.556   1.107   4.527
  233PC     H1B 9143   0.461   1.043   4.669
  233PC     C32 9144   0.377   0.991   4.473
  233PC     H2A 9145   0.409   0.886   4.477
  233PC     H2B 9146   0.274   1.004   4.507
  233PC     N31 9147   0.362   1.028   4.333
  233PC     C33 9148   0.314   0.909   4.265
  233PC     H3A 9149   0.383   0.830   4.297
  233PC     H3B 9150   0.331   0.919   4.158
  233PC     H3C 9151   0.209   0.886   4.281
  233PC     C34 9152   0.490   1.056   4.265
  233PC     H4A 9153   0.526   1.148   4.310
  233PC     H4B 9154   0.471   1.070   4.158
  233PC     H4C 9155   0.561   0.975   4.281
  233PC     C35 9156   0.274   1.155   4.318
  233PC     H5A 9157   0.248   1.179   4.216
  233PC     H5B 9158   0.336   1.231   4.366
  233PC     H5C 9159   0.180   1.147   4.374
  233PC     O33 9160   0.415   1.449   4.643
  233PC     O34 9161   0.608   1.280   4.687
  233PC     O21 9162   0.354   1.456   5.056
  233PC     C21 9163   0.436   1.556   5.091
  233PC     O22 9164   0.449   1.662   5.032
  234MY    H14T 9165   1.254   1.542   6.122
  234MY    C114 9166   1.304   1.557   6.025
  234MY    H14R 9167   1.394   1.617   6.043
  234MY    H14S 9168   1.326   1.456   5.991
  234MY    C113 9169   1.214   1.637   5.928
  234MY    H13R 9170   1.184   1.731   5.975
  234MY    H13S 9171   1.260   1.674   5.836
  234MY    C112 9172   1.088   1.572   5.881
  234MY    H12R 9173   1.029   1.623   5.805
  234MY    H12S 9174   1.116   1.481   5.827
  234MY    C111 9175   0.985   1.539   5.997
  234MY    H11R 9176   1.024   1.480   6.080
  234MY    H11S 9177   0.939   1.630   6.035
  234MY    C110 9178   0.863   1.450   5.952
  234MY    H10R 9179   0.893   1.349   5.925
  234MY    H10S 9180   0.795   1.435   6.037
  234MY     C19 9181   0.780   1.496   5.828
  234MY     H9R 9182   0.844   1.506   5.740
  234MY     H9S 9183   0.704   1.421   5.805
  234MY     C18 9184   0.720   1.638   5.839
  234MY     H8R 9185   0.670   1.647   5.935
  234MY     H8S 9186   0.808   1.702   5.841
  234MY     C17 9187   0.626   1.664   5.721
  234MY     H7R 9188   0.599   1.769   5.727
  234MY     H7S 9189   0.678   1.645   5.627
  234MY     C16 9190   0.497   1.576   5.713
  234MY     H6R 9191   0.518   1.469   5.721
  234MY     H6S 9192   0.430   1.592   5.798
  234MY     C15 9193   0.410   1.600   5.587
  234MY     H5R 9194   0.320   1.538   5.596
  234MY     H5S 9195   0.382   1.705   5.575
  234MY     C14 9196   0.485   1.549   5.464
  234MY     H4R 9197   0.586   1.590   5.463
  234MY     H4S 9198   0.496   1.440   5.475
  234MY     C13 9199   0.414   1.577   5.327
  234MY     H3R 9200   0.326   1.513   5.326
  234MY     H3S 9201   0.389   1.684   5.327
  234MY     C12 9202   0.508   1.534   5.217
  234MY     H2R 9203   0.608   1.578   5.211
  234MY     H2S 9204   0.531   1.427   5.220
  235MY    H14T 9205   3.739   0.596   6.095
  235MY    C114 9206   3.834   0.648   6.103
  235MY    H14R 9207   3.824   0.744   6.155
  235MY    H14S 9208   3.899   0.587   6.166
  235MY    C113 9209   3.897   0.656   5.970
  235MY    H13R 9210   4.000   0.692   5.974
  235MY    H13S 9211   3.909   0.556   5.925
  235MY    C112 9212   3.819   0.735   5.867
  235MY    H12R 9213   3.718   0.694   5.861
  235MY    H12S 9214   3.806   0.839   5.899
  235MY    C111 9215   3.883   0.732   5.719
  235MY    H11R 9216   3.990   0.752   5.736
  235MY    H11S 9217   3.870   0.629   5.687
  235MY    C110 9218   3.827   0.838   5.612
  235MY    H10R 9219   3.719   0.836   5.595
  235MY    H10S 9220   3.852   0.939   5.645
  235MY     C19 9221   3.897   0.797   5.476
  235MY     H9R 9222   4.006   0.796   5.476
  235MY     H9S 9223   3.857   0.696   5.460
  235MY     C18 9224   3.854   0.895   5.366
  235MY     H8R 9225   3.745   0.897   5.364
  235MY     H8S 9226   3.881   0.997   5.396
  235MY     C17 9227   3.914   0.878   5.227
  235MY     H7R 9228   3.871   0.953   5.160
  235MY     H7S 9229   4.020   0.899   5.242
  235MY     C16 9230   3.884   0.743   5.143
  235MY     H6R 9231   3.914   0.662   5.210
  235MY     H6S 9232   3.779   0.724   5.121
  235MY     C15 9233   3.964   0.727   5.011
  235MY     H5R 9234   4.068   0.720   5.043
  235MY     H5S 9235   3.938   0.631   4.967
  235MY     C14 9236   3.952   0.839   4.905
  235MY     H4R 9237   3.845   0.860   4.892
  235MY     H4S 9238   3.997   0.927   4.949
  235MY     C13 9239   4.012   0.792   4.766
  235MY     H3R 9240   3.958   0.702   4.733
  235MY     H3S 9241   3.994   0.870   4.691
  235MY     C12 9242   4.164   0.762   4.774
  235MY     H2R 9243   4.209   0.858   4.797
  235MY     H2S 9244   4.190   0.702   4.861
  236PC     C11 9245   4.219   0.708   4.648
  236PC     O12 9246   4.149   0.669   4.556
  236PC     O11 9247   4.348   0.687   4.662
  236PC      C1 9248   4.430   0.635   4.557
  236PC      HR 9249   4.375   0.639   4.463
  236PC      HS 9250   4.521   0.691   4.534
  236PC      C2 9251   4.455   0.485   4.587
  236PC      HX 9252   4.541   0.457   4.524
  236PC      C3 9253   4.341   0.391   4.543
  236PC      HA 9254   4.351   0.290   4.582
  236PC      HB 9255   4.242   0.423   4.576
  236PC     O31 9256   4.317   0.397   4.403
  236PC     P31 9257   4.419   0.320   4.302
  236PC     O32 9258   4.328   0.216   4.221
  236PC     C31 9259   4.271   0.100   4.274
  236PC     H1A 9260   4.350   0.034   4.309
  236PC     H1B 9261   4.207   0.130   4.358
  236PC     C32 9262   4.185   0.029   4.168
  236PC     H2A 9263   4.103   0.094   4.138
  236PC     H2B 9264   4.251   0.016   4.082
  236PC     N31 9265   4.124  -0.107   4.197
  236PC     C33 9266   4.050  -0.158   4.080
  236PC     H3A 9267   3.973  -0.082   4.066
  236PC     H3B 9268   3.999  -0.252   4.105
  236PC     H3C 9269   4.125  -0.171   4.002
  236PC     C34 9270   4.038  -0.096   4.321
  236PC     H4A 9271   4.107  -0.074   4.403
  236PC     H4B 9272   4.004  -0.198   4.339
  236PC     H4C 9273   3.959  -0.021   4.314
  236PC     C35 9274   4.235  -0.197   4.236
  236PC     H5A 9275   4.295  -0.153   4.316
  236PC     H5B 9276   4.290  -0.223   4.146
  236PC     H5C 9277   4.182  -0.283   4.279
  236PC     O33 9278   4.478   0.420   4.210
  236PC     O34 9279   4.514   0.244   4.385
  236PC     O21 9280   4.486   0.457   4.725
  236PC     C21 9281   4.600   0.510   4.770
  236PC     O22 9282   4.686   0.571   4.705
  237MY    H14T 9283   4.772  -0.067   6.033
  237MY    C114 9284   4.733   0.031   6.005
  237MY    H14R 9285   4.665   0.015   5.921
  237MY    H14S 9286   4.672   0.077   6.083
  237MY    C113 9287   4.844   0.120   5.965
  237MY    H13R 9288   4.792   0.205   5.921
  237MY    H13S 9289   4.918   0.147   6.042
  237MY    C112 9290   4.931   0.066   5.846
  237MY    H12R 9291   5.015   0.136   5.843
  237MY    H12S 9292   4.980  -0.026   5.880
  237MY    C111 9293   4.859   0.060   5.709
  237MY    H11R 9294   4.931   0.054   5.627
  237MY    H11S 9295   4.807  -0.036   5.707
  237MY    C110 9296   4.773   0.181   5.669
  237MY    H10R 9297   4.743   0.168   5.565
  237MY    H10S 9298   4.685   0.194   5.732
  237MY     C19 9299   4.847   0.314   5.662
  237MY     H9R 9300   4.878   0.351   5.760
  237MY     H9S 9301   4.934   0.291   5.600
  237MY     C18 9302   4.768   0.427   5.583
  237MY     H8R 9303   4.682   0.472   5.633
  237MY     H8S 9304   4.836   0.510   5.565
  237MY     C17 9305   4.709   0.397   5.445
  237MY     H7R 9306   4.635   0.317   5.450
  237MY     H7S 9307   4.652   0.487   5.418
  237MY     C16 9308   4.815   0.378   5.331
  237MY     H6R 9309   4.894   0.450   5.349
  237MY     H6S 9310   4.865   0.281   5.339
  237MY     C15 9311   4.748   0.385   5.188
  237MY     H5R 9312   4.811   0.329   5.118
  237MY     H5S 9313   4.654   0.330   5.177
  237MY     C14 9314   4.743   0.531   5.138
  237MY     H4R 9315   4.650   0.572   5.178
  237MY     H4S 9316   4.825   0.593   5.174
  237MY     C13 9317   4.733   0.547   4.986
  237MY     H3R 9318   4.743   0.653   4.963
  237MY     H3S 9319   4.819   0.492   4.948
  237MY     C12 9320   4.606   0.483   4.919
  237MY     H2R 9321   4.614   0.375   4.934
  237MY     H2S 9322   4.516   0.522   4.968
  238MY    H14T 9323   6.019   0.112   5.543
  238MY    C114 9324   5.928   0.167   5.566
  238MY    H14R 9325   5.957   0.257   5.619
  238MY    H14S 9326   5.910   0.195   5.462
  238MY    C113 9327   5.824   0.075   5.634
  238MY    H13R 9328   5.805  -0.019   5.581
  238MY    H13S 9329   5.860   0.049   5.734
  238MY    C112 9330   5.694   0.155   5.660
  238MY    H12R 9331   5.711   0.246   5.719
  238MY    H12S 9332   5.655   0.180   5.561
  238MY    C111 9333   5.590   0.077   5.738
  238MY    H11R 9334   5.572  -0.016   5.684
  238MY    H11S 9335   5.635   0.051   5.834
  238MY    C110 9336   5.457   0.161   5.755
  238MY    H10R 9337   5.486   0.238   5.827
  238MY    H10S 9338   5.430   0.212   5.663
  238MY     C19 9339   5.337   0.073   5.811
  238MY     H9R 9340   5.371   0.020   5.900
  238MY     H9S 9341   5.248   0.129   5.841
  238MY     C18 9342   5.280  -0.023   5.703
  238MY     H8R 9343   5.365  -0.079   5.664
  238MY     H8S 9344   5.211  -0.103   5.730
  238MY     C17 9345   5.219   0.058   5.582
  238MY     H7R 9346   5.125   0.110   5.602
  238MY     H7S 9347   5.295   0.124   5.540
  238MY     C16 9348   5.189  -0.032   5.463
  238MY     H6R 9349   5.284  -0.058   5.417
  238MY     H6S 9350   5.131  -0.119   5.495
  238MY     C15 9351   5.095   0.039   5.361
  238MY     H5R 9352   5.000   0.066   5.405
  238MY     H5S 9353   5.143   0.133   5.332
  238MY     C14 9354   5.055  -0.032   5.234
  238MY     H4R 9355   5.145  -0.076   5.189
  238MY     H4S 9356   4.998  -0.123   5.256
  238MY     C13 9357   4.984   0.044   5.126
  238MY     H3R 9358   4.942  -0.026   5.054
  238MY     H3S 9359   4.905   0.109   5.165
  238MY     C12 9360   5.084   0.140   5.052
  238MY     H2R 9361   5.115   0.219   5.120
  238MY     H2S 9362   5.172   0.093   5.008
  239PC     C11 9363   5.023   0.221   4.942
  239PC     O12 9364   4.902   0.212   4.913
  239PC     O11 9365   5.099   0.310   4.872
  239PC      C1 9366   5.053   0.364   4.741
  239PC      HR 9367   5.040   0.277   4.676
  239PC      HS 9368   4.957   0.415   4.754
  239PC      C2 9369   5.148   0.470   4.681
  239PC      HX 9370   5.088   0.533   4.615
  239PC      C3 9371   5.257   0.395   4.607
  239PC      HA 9372   5.315   0.480   4.568
  239PC      HB 9373   5.317   0.329   4.670
  239PC     O31 9374   5.219   0.334   4.478
  239PC     P31 9375   5.341   0.279   4.394
  239PC     O32 9376   5.327   0.126   4.426
  239PC     C31 9377   5.230   0.044   4.354
  239PC     H1A 9378   5.193   0.091   4.262
  239PC     H1B 9379   5.290  -0.045   4.334
  239PC     C32 9380   5.118   0.005   4.450
  239PC     H2A 9381   5.155  -0.057   4.532
  239PC     H2B 9382   5.074   0.096   4.491
  239PC     N31 9383   4.997  -0.069   4.392
  239PC     C33 9384   4.937   0.004   4.274
  239PC     H3A 9385   5.011   0.001   4.195
  239PC     H3B 9386   4.921   0.109   4.299
  239PC     H3C 9387   4.842  -0.042   4.246
  239PC     C34 9388   4.894  -0.090   4.499
  239PC     H4A 9389   4.859   0.009   4.530
  239PC     H4B 9390   4.940  -0.153   4.576
  239PC     H4C 9391   4.820  -0.156   4.451
  239PC     C35 9392   5.025  -0.205   4.331
  239PC     H5A 9393   4.924  -0.235   4.302
  239PC     H5B 9394   5.065  -0.280   4.399
  239PC     H5C 9395   5.078  -0.195   4.236
  239PC     O33 9396   5.302   0.294   4.256
  239PC     O34 9397   5.472   0.321   4.437
  239PC     O21 9398   5.208   0.544   4.787
  239PC     C21 9399   5.133   0.629   4.857
  239PC     O22 9400   5.023   0.672   4.824
  240MY    H14T 9401   4.584   0.860   6.266
  240MY    C114 9402   4.596   0.815   6.167
  240MY    H14R 9403   4.677   0.744   6.154
  240MY    H14S 9404   4.504   0.757   6.153
  240MY    C113 9405   4.588   0.937   6.062
  240MY    H13R 9406   4.487   0.978   6.057
  240MY    H13S 9407   4.639   1.013   6.122
  240MY    C112 9408   4.637   0.908   5.919
  240MY    H12R 9409   4.734   0.861   5.938
  240MY    H12S 9410   4.573   0.832   5.875
  240MY    C111 9411   4.652   1.035   5.833
  240MY    H11R 9412   4.567   1.042   5.765
  240MY    H11S 9413   4.647   1.122   5.899
  240MY    C110 9414   4.773   1.029   5.740
  240MY    H10R 9415   4.799   1.134   5.724
  240MY    H10S 9416   4.863   0.991   5.789
  240MY     C19 9417   4.743   0.964   5.599
  240MY     H9R 9418   4.714   0.859   5.611
  240MY     H9S 9419   4.657   1.009   5.551
  240MY     C18 9420   4.856   0.984   5.496
  240MY     H8R 9421   4.814   0.943   5.403
  240MY     H8S 9422   4.874   1.088   5.468
  240MY     C17 9423   4.988   0.909   5.535
  240MY     H7R 9424   5.037   0.959   5.620
  240MY     H7S 9425   4.962   0.807   5.560
  240MY     C16 9426   5.100   0.902   5.431
  240MY     H6R 9427   5.148   0.999   5.419
  240MY     H6S 9428   5.173   0.829   5.467
  240MY     C15 9429   5.047   0.845   5.302
  240MY     H5R 9430   4.984   0.758   5.320
  240MY     H5S 9431   4.985   0.918   5.249
  240MY     C14 9432   5.157   0.800   5.207
  240MY     H4R 9433   5.218   0.885   5.176
  240MY     H4S 9434   5.226   0.733   5.258
  240MY     C13 9435   5.088   0.733   5.085
  240MY     H3R 9436   5.028   0.653   5.128
  240MY     H3S 9437   5.021   0.796   5.026
  240MY     C12 9438   5.190   0.656   4.998
  240MY     H2R 9439   5.284   0.711   4.990
  240MY     H2S 9440   5.203   0.558   5.043
  241MY    H14T 9441   2.728   1.167   6.008
  241MY    C114 9442   2.801   1.227   5.953
  241MY    H14R 9443   2.891   1.165   5.951
  241MY    H14S 9444   2.769   1.231   5.848
  241MY    C113 9445   2.813   1.366   6.020
  241MY    H13R 9446   2.840   1.350   6.124
  241MY    H13S 9447   2.891   1.422   5.969
  241MY    C112 9448   2.682   1.453   6.009
  241MY    H12R 9449   2.594   1.392   5.989
  241MY    H12S 9450   2.658   1.506   6.101
  241MY    C111 9451   2.688   1.564   5.896
  241MY    H11R 9452   2.596   1.623   5.896
  241MY    H11S 9453   2.763   1.640   5.920
  241MY    C110 9454   2.688   1.511   5.747
  241MY    H10R 9455   2.723   1.587   5.677
  241MY    H10S 9456   2.754   1.424   5.742
  241MY     C19 9457   2.551   1.449   5.706
  241MY     H9R 9458   2.537   1.353   5.756
  241MY     H9S 9459   2.465   1.512   5.729
  241MY     C18 9460   2.547   1.423   5.550
  241MY     H8R 9461   2.621   1.347   5.525
  241MY     H8S 9462   2.455   1.369   5.529
  241MY     C17 9463   2.578   1.537   5.448
  241MY     H7R 9464   2.675   1.582   5.472
  241MY     H7S 9465   2.589   1.500   5.345
  241MY     C16 9466   2.486   1.663   5.442
  241MY     H6R 9467   2.452   1.699   5.540
  241MY     H6S 9468   2.528   1.750   5.391
  241MY     C15 9469   2.347   1.627   5.381
  241MY     H5R 9470   2.315   1.529   5.418
  241MY     H5S 9471   2.278   1.701   5.421
  241MY     C14 9472   2.364   1.629   5.224
  241MY     H4R 9473   2.445   1.563   5.191
  241MY     H4S 9474   2.276   1.586   5.177
  241MY     C13 9475   2.388   1.766   5.163
  241MY     H3R 9476   2.327   1.843   5.211
  241MY     H3S 9477   2.494   1.785   5.184
  241MY     C12 9478   2.372   1.770   5.010
  241MY     H2R 9479   2.434   1.695   4.962
  241MY     H2S 9480   2.276   1.735   4.973
  242PC     C11 9481   2.388   1.905   4.953
  242PC     O12 9482   2.476   1.976   4.989
  242PC     O11 9483   2.288   1.945   4.874
  242PC      C1 9484   2.303   2.076   4.814
  242PC      HR 9485   2.346   2.149   4.882
  242PC      HS 9486   2.374   2.066   4.731
  242PC      C2 9487   2.170   2.120   4.748
  242PC      HX 9488   2.145   2.044   4.673
  242PC      C3 9489   2.169   2.260   4.680
  242PC      HA 9490   2.067   2.299   4.687
  242PC      HB 9491   2.226   2.344   4.721
  242PC     O31 9492   2.205   2.252   4.540
  242PC     P31 9493   2.345   2.207   4.483
  242PC     O32 9494   2.367   2.060   4.502
  242PC     C31 9495   2.311   1.967   4.415
  242PC     H1A 9496   2.250   1.905   4.481
  242PC     H1B 9497   2.247   2.016   4.342
  242PC     C32 9498   2.426   1.884   4.361
  242PC     H2A 9499   2.492   1.850   4.441
  242PC     H2B 9500   2.382   1.790   4.327
  242PC     N31 9501   2.515   1.937   4.251
  242PC     C33 9502   2.607   1.828   4.212
  242PC     H3A 9503   2.668   1.864   4.129
  242PC     H3B 9504   2.554   1.736   4.187
  242PC     H3C 9505   2.662   1.808   4.303
  242PC     C34 9506   2.605   2.046   4.296
  242PC     H4A 9507   2.626   2.009   4.397
  242PC     H4B 9508   2.545   2.136   4.304
  242PC     H4C 9509   2.689   2.066   4.230
  242PC     C35 9510   2.439   1.993   4.129
  242PC     H5A 9511   2.507   2.060   4.078
  242PC     H5B 9512   2.359   2.057   4.168
  242PC     H5C 9513   2.407   1.909   4.067
  242PC     O33 9514   2.337   2.227   4.336
  242PC     O34 9515   2.450   2.278   4.549
  242PC     O21 9516   2.071   2.127   4.857
  242PC     C21 9517   1.981   2.026   4.869
  242PC     O22 9518   1.953   1.948   4.785
  243MY    H14T 9519   2.027   2.283   6.350
  243MY    C114 9520   2.005   2.180   6.381
  243MY    H14R 9521   2.076   2.157   6.460
  243MY    H14S 9522   1.904   2.189   6.421
  243MY    C113 9523   2.011   2.094   6.255
  243MY    H13R 9524   2.108   2.112   6.207
  243MY    H13S 9525   2.014   1.987   6.274
  243MY    C112 9526   1.902   2.121   6.145
  243MY    H12R 9527   1.806   2.085   6.182
  243MY    H12S 9528   1.905   2.228   6.128
  243MY    C111 9529   1.928   2.062   6.005
  243MY    H11R 9530   2.034   2.064   5.980
  243MY    H11S 9531   1.907   1.955   5.999
  243MY    C110 9532   1.840   2.140   5.905
  243MY    H10R 9533   1.737   2.113   5.931
  243MY    H10S 9534   1.854   2.247   5.923
  243MY     C19 9535   1.885   2.129   5.762
  243MY     H9R 9536   1.978   2.181   5.741
  243MY     H9S 9537   1.910   2.025   5.739
  243MY     C18 9538   1.779   2.188   5.666
  243MY     H8R 9539   1.696   2.118   5.684
  243MY     H8S 9540   1.753   2.290   5.695
  243MY     C17 9541   1.822   2.190   5.520
  243MY     H7R 9542   1.740   2.244   5.472
  243MY     H7S 9543   1.909   2.255   5.507
  243MY     C16 9544   1.847   2.052   5.449
  243MY     H6R 9545   1.938   2.022   5.500
  243MY     H6S 9546   1.763   1.986   5.471
  243MY     C15 9547   1.871   2.063   5.296
  243MY     H5R 9548   1.777   2.041   5.246
  243MY     H5S 9549   1.913   2.160   5.266
  243MY     C14 9550   1.971   1.957   5.254
  243MY     H4R 9551   2.056   1.964   5.322
  243MY     H4S 9552   1.937   1.853   5.261
  243MY     C13 9553   2.024   1.982   5.113
  243MY     H3R 9554   2.084   2.072   5.123
  243MY     H3S 9555   2.101   1.912   5.080
  243MY     C12 9556   1.919   2.006   5.008
  243MY     H2R 9557   1.842   1.929   4.999
  243MY     H2S 9558   1.863   2.094   5.038
  244MY    H14T 9559   4.030   2.893   5.886
  244MY    C114 9560   3.984   2.869   5.790
  244MY    H14R 9561   3.883   2.836   5.813
  244MY    H14S 9562   3.977   2.959   5.727
  244MY    C113 9563   4.075   2.767   5.717
  244MY    H13R 9564   4.177   2.804   5.706
  244MY    H13S 9565   4.082   2.671   5.769
  244MY    C112 9566   4.014   2.739   5.584
  244MY    H12R 9567   3.922   2.684   5.606
  244MY    H12S 9568   3.993   2.825   5.520
  244MY    C111 9569   4.094   2.649   5.486
  244MY    H11R 9570   4.027   2.632   5.402
  244MY    H11S 9571   4.181   2.703   5.449
  244MY    C110 9572   4.144   2.516   5.554
  244MY    H10R 9573   4.205   2.541   5.641
  244MY    H10S 9574   4.066   2.448   5.590
  244MY     C19 9575   4.229   2.429   5.454
  244MY     H9R 9576   4.308   2.483   5.402
  244MY     H9S 9577   4.273   2.347   5.512
  244MY     C18 9578   4.155   2.352   5.342
  244MY     H8R 9579   4.099   2.266   5.380
  244MY     H8S 9580   4.073   2.411   5.302
  244MY     C17 9581   4.238   2.294   5.227
  244MY     H7R 9582   4.291   2.206   5.264
  244MY     H7S 9583   4.161   2.259   5.158
  244MY     C16 9584   4.346   2.389   5.157
  244MY     H6R 9585   4.416   2.411   5.238
  244MY     H6S 9586   4.393   2.328   5.079
  244MY     C15 9587   4.289   2.520   5.094
  244MY     H5R 9588   4.217   2.492   5.016
  244MY     H5S 9589   4.225   2.567   5.168
  244MY     C14 9590   4.407   2.605   5.037
  244MY     H4R 9591   4.444   2.664   5.120
  244MY     H4S 9592   4.477   2.531   4.997
  244MY     C13 9593   4.366   2.709   4.932
  244MY     H3R 9594   4.453   2.765   4.895
  244MY     H3S 9595   4.331   2.662   4.840
  244MY     C12 9596   4.265   2.810   4.979
  244MY     H2R 9597   4.165   2.768   4.986
  244MY     H2S 9598   4.279   2.843   5.082
  245PC     C11 9599   4.244   2.927   4.884
  245PC     O12 9600   4.160   2.931   4.792
  245PC     O11 9601   4.323   3.028   4.911
  245PC      C1 9602   4.317   3.149   4.827
  245PC      HR 9603   4.406   3.210   4.847
  245PC      HS 9604   4.318   3.128   4.720
  245PC      C2 9605   4.188   3.228   4.856
  245PC      HX 9606   4.111   3.165   4.812
  245PC      C3 9607   4.187   3.370   4.800
  245PC      HA 9608   4.085   3.410   4.803
  245PC      HB 9609   4.253   3.435   4.858
  245PC     O31 9610   4.226   3.388   4.660
  245PC     P31 9611   4.115   3.359   4.543
  245PC     O32 9612   4.054   3.502   4.524
  245PC     C31 9613   3.944   3.558   4.603
  245PC     H1A 9614   3.852   3.501   4.617
  245PC     H1B 9615   3.988   3.569   4.703
  245PC     C32 9616   3.920   3.699   4.541
  245PC     H2A 9617   4.011   3.757   4.559
  245PC     H2B 9618   3.910   3.685   4.433
  245PC     N31 9619   3.795   3.776   4.585
  245PC     C33 9620   3.811   3.916   4.559
  245PC     H3A 9621   3.804   3.932   4.451
  245PC     H3B 9622   3.907   3.948   4.601
  245PC     H3C 9623   3.723   3.966   4.600
  245PC     C34 9624   3.796   3.766   4.734
  245PC     H4A 9625   3.895   3.804   4.758
  245PC     H4B 9626   3.785   3.662   4.766
  245PC     H4C 9627   3.709   3.819   4.774
  245PC     C35 9628   3.667   3.731   4.529
  245PC     H5A 9629   3.634   3.635   4.569
  245PC     H5B 9630   3.689   3.724   4.422
  245PC     H5C 9631   3.591   3.804   4.558
  245PC     O33 9632   4.189   3.328   4.419
  245PC     O34 9633   4.009   3.265   4.596
  245PC     O21 9634   4.173   3.248   5.001
  245PC     C21 9635   4.093   3.165   5.066
  245PC     O22 9636   4.026   3.083   5.016
  246MY    H14T 9637   4.565   3.479   5.522
  246MY    C114 9638   4.594   3.573   5.569
  246MY    H14R 9639   4.648   3.637   5.498
  246MY    H14S 9640   4.498   3.612   5.602
  246MY    C113 9641   4.683   3.534   5.692
  246MY    H13R 9642   4.776   3.500   5.647
  246MY    H13S 9643   4.693   3.622   5.757
  246MY    C112 9644   4.640   3.420   5.785
  246MY    H12R 9645   4.669   3.324   5.740
  246MY    H12S 9646   4.705   3.415   5.872
  246MY    C111 9647   4.494   3.411   5.832
  246MY    H11R 9648   4.469   3.504   5.885
  246MY    H11S 9649   4.435   3.418   5.741
  246MY    C110 9650   4.462   3.284   5.914
  246MY    H10R 9651   4.474   3.196   5.850
  246MY    H10S 9652   4.535   3.284   5.996
  246MY     C19 9653   4.328   3.278   5.979
  246MY     H9R 9654   4.317   3.185   6.034
  246MY     H9S 9655   4.327   3.368   6.041
  246MY     C18 9656   4.221   3.279   5.873
  246MY     H8R 9657   4.132   3.242   5.924
  246MY     H8S 9658   4.176   3.374   5.844
  246MY     C17 9659   4.237   3.189   5.759
  246MY     H7R 9660   4.326   3.211   5.699
  246MY     H7S 9661   4.241   3.086   5.794
  246MY     C16 9662   4.125   3.198   5.662
  246MY     H6R 9663   4.037   3.156   5.713
  246MY     H6S 9664   4.122   3.304   5.640
  246MY     C15 9665   4.134   3.114   5.536
  246MY     H5R 9666   4.228   3.144   5.488
  246MY     H5S 9667   4.140   3.008   5.557
  246MY     C14 9668   4.009   3.132   5.445
  246MY     H4R 9669   3.938   3.077   5.506
  246MY     H4S 9670   3.989   3.240   5.446
  246MY     C13 9671   4.013   3.085   5.303
  246MY     H3R 9672   4.057   2.986   5.290
  246MY     H3S 9673   3.909   3.085   5.270
  246MY     C12 9674   4.106   3.186   5.219
  246MY     H2R 9675   4.070   3.288   5.230
  246MY     H2S 9676   4.210   3.183   5.252
  247MY    H14T 9677   4.870   2.891   5.847
  247MY    C114 9678   4.791   2.828   5.804
  247MY    H14R 9679   4.812   2.818   5.697
  247MY    H14S 9680   4.794   2.731   5.853
  247MY    C113 9681   4.659   2.902   5.828
  247MY    H13R 9682   4.635   2.903   5.935
  247MY    H13S 9683   4.662   3.003   5.787
  247MY    C112 9684   4.550   2.827   5.745
  247MY    H12R 9685   4.538   2.721   5.769
  247MY    H12S 9686   4.462   2.890   5.761
  247MY    C111 9687   4.573   2.821   5.597
  247MY    H11R 9688   4.614   2.917   5.565
  247MY    H11S 9689   4.644   2.745   5.564
  247MY    C110 9690   4.449   2.782   5.517
  247MY    H10R 9691   4.411   2.687   5.553
  247MY    H10S 9692   4.365   2.850   5.535
  247MY     C19 9693   4.464   2.787   5.364
  247MY     H9R 9694   4.532   2.709   5.329
  247MY     H9S 9695   4.368   2.750   5.328
  247MY     C18 9696   4.514   2.920   5.300
  247MY     H8R 9697   4.622   2.934   5.299
  247MY     H8S 9698   4.471   2.915   5.200
  247MY     C17 9699   4.443   3.040   5.367
  247MY     H7R 9700   4.334   3.028   5.371
  247MY     H7S 9701   4.475   3.051   5.471
  247MY     C16 9702   4.467   3.169   5.300
  247MY     H6R 9703   4.424   3.157   5.201
  247MY     H6S 9704   4.400   3.241   5.348
  247MY     C15 9705   4.615   3.219   5.289
  247MY     H5R 9706   4.657   3.234   5.389
  247MY     H5S 9707   4.677   3.144   5.240
  247MY     C14 9708   4.632   3.349   5.210
  247MY     H4R 9709   4.569   3.419   5.264
  247MY     H4S 9710   4.737   3.378   5.212
  247MY     C13 9711   4.585   3.329   5.062
  247MY     H3R 9712   4.634   3.246   5.012
  247MY     H3S 9713   4.477   3.318   5.068
  247MY     C12 9714   4.600   3.464   4.980
  247MY     H2R 9715   4.505   3.517   4.978
  247MY     H2S 9716   4.676   3.523   5.031
  248PC     C11 9717   4.647   3.432   4.842
  248PC     O12 9718   4.755   3.466   4.796
  248PC     O11 9719   4.563   3.355   4.765
  248PC      C1 9720   4.589   3.326   4.624
  248PC      HR 9721   4.499   3.283   4.581
  248PC      HS 9722   4.612   3.421   4.575
  248PC      C2 9723   4.703   3.224   4.613
  248PC      HX 9724   4.790   3.272   4.657
  248PC      C3 9725   4.724   3.177   4.471
  248PC      HA 9726   4.765   3.075   4.469
  248PC      HB 9727   4.631   3.168   4.414
  248PC     O31 9728   4.818   3.264   4.398
  248PC     P31 9729   4.755   3.359   4.275
  248PC     O32 9730   4.771   3.270   4.139
  248PC     C31 9731   4.706   3.143   4.130
  248PC     H1A 9732   4.612   3.146   4.184
  248PC     H1B 9733   4.696   3.118   4.024
  248PC     C32 9734   4.804   3.042   4.196
  248PC     H2A 9735   4.847   3.078   4.289
  248PC     H2B 9736   4.756   2.948   4.221
  248PC     N31 9737   4.917   3.007   4.107
  248PC     C33 9738   4.899   2.980   3.965
  248PC     H3A 9739   4.882   3.077   3.919
  248PC     H3B 9740   4.815   2.911   3.954
  248PC     H3C 9741   4.993   2.940   3.924
  248PC     C34 9742   4.994   2.886   4.157
  248PC     H4A 9743   5.063   2.863   4.076
  248PC     H4B 9744   4.918   2.812   4.184
  248PC     H4C 9745   5.053   2.916   4.244
  248PC     C35 9746   5.013   3.119   4.101
  248PC     H5A 9747   4.973   3.220   4.094
  248PC     H5B 9748   5.082   3.093   4.020
  248PC     H5C 9749   5.080   3.123   4.186
  248PC     O33 9750   4.608   3.373   4.287
  248PC     O34 9751   4.835   3.484   4.265
  248PC     O21 9752   4.664   3.117   4.700
  248PC     C21 9753   4.753   3.025   4.744
  248PC     O22 9754   4.868   3.027   4.719
  249MY    H14T 9755   5.193   3.551   6.022
  249MY    C114 9756   5.284   3.505   5.983
  249MY    H14R 9757   5.341   3.589   5.946
  249MY    H14S 9758   5.332   3.454   6.066
  249MY    C113 9759   5.245   3.417   5.864
  249MY    H13R 9760   5.217   3.488   5.786
  249MY    H13S 9761   5.337   3.381   5.819
  249MY    C112 9762   5.136   3.308   5.876
  249MY    H12R 9763   5.190   3.232   5.932
  249MY    H12S 9764   5.050   3.344   5.932
  249MY    C111 9765   5.091   3.252   5.735
  249MY    H11R 9766   5.067   3.336   5.669
  249MY    H11S 9767   5.167   3.188   5.692
  249MY    C110 9768   4.960   3.161   5.749
  249MY    H10R 9769   4.986   3.088   5.827
  249MY    H10S 9770   4.873   3.213   5.789
  249MY     C19 9771   4.915   3.101   5.612
  249MY     H9R 9772   4.849   3.024   5.652
  249MY     H9S 9773   4.857   3.178   5.560
  249MY     C18 9774   5.022   3.038   5.519
  249MY     H8R 9775   5.072   3.118   5.463
  249MY     H8S 9776   5.096   2.992   5.585
  249MY     C17 9777   4.982   2.938   5.415
  249MY     H7R 9778   5.066   2.899   5.357
  249MY     H7S 9779   4.931   2.858   5.467
  249MY     C16 9780   4.886   2.995   5.306
  249MY     H6R 9781   4.797   3.027   5.361
  249MY     H6S 9782   4.927   3.088   5.265
  249MY     C15 9783   4.858   2.892   5.191
  249MY     H5R 9784   4.948   2.841   5.156
  249MY     H5S 9785   4.799   2.807   5.224
  249MY     C14 9786   4.791   2.964   5.063
  249MY     H4R 9787   4.692   2.996   5.096
  249MY     H4S 9788   4.854   3.046   5.026
  249MY     C13 9789   4.760   2.866   4.948
  249MY     H3R 9790   4.851   2.835   4.895
  249MY     H3S 9791   4.710   2.776   4.986
  249MY     C12 9792   4.679   2.915   4.828
  249MY     H2R 9793   4.659   2.834   4.758
  249MY     H2S 9794   4.575   2.943   4.850
  250MY    H14T 9795   2.015   0.520   6.425
  250MY    C114 9796   2.066   0.614   6.405
  250MY    H14R 9797   1.995   0.676   6.349
  250MY    H14S 9798   2.087   0.671   6.496
  250MY    C113 9799   2.200   0.583   6.335
  250MY    H13R 9800   2.257   0.676   6.332
  250MY    H13S 9801   2.256   0.515   6.400
  250MY    C112 9802   2.171   0.516   6.194
  250MY    H12R 9803   2.143   0.412   6.207
  250MY    H12S 9804   2.081   0.568   6.161
  250MY    C111 9805   2.289   0.532   6.097
  250MY    H11R 9806   2.334   0.631   6.090
  250MY    H11S 9807   2.369   0.466   6.133
  250MY    C110 9808   2.252   0.490   5.957
  250MY    H10R 9809   2.208   0.392   5.970
  250MY    H10S 9810   2.181   0.560   5.913
  250MY     C19 9811   2.382   0.467   5.866
  250MY     H9R 9812   2.423   0.562   5.832
  250MY     H9S 9813   2.459   0.417   5.926
  250MY     C18 9814   2.360   0.377   5.738
  250MY     H8R 9815   2.322   0.278   5.761
  250MY     H8S 9816   2.289   0.430   5.674
  250MY     C17 9817   2.491   0.363   5.652
  250MY     H7R 9818   2.516   0.459   5.608
  250MY     H7S 9819   2.568   0.340   5.727
  250MY     C16 9820   2.495   0.267   5.531
  250MY     H6R 9821   2.563   0.296   5.450
  250MY     H6S 9822   2.512   0.170   5.578
  250MY     C15 9823   2.357   0.271   5.444
  250MY     H5R 9824   2.348   0.194   5.367
  250MY     H5S 9825   2.280   0.241   5.516
  250MY     C14 9826   2.322   0.408   5.383
  250MY     H4R 9827   2.224   0.394   5.339
  250MY     H4S 9828   2.305   0.486   5.458
  250MY     C13 9829   2.428   0.457   5.284
  250MY     H3R 9830   2.386   0.546   5.238
  250MY     H3S 9831   2.514   0.483   5.346
  250MY     C12 9832   2.460   0.357   5.172
  250MY     H2R 9833   2.515   0.407   5.092
  250MY     H2S 9834   2.531   0.279   5.204
  251PC     C11 9835   2.339   0.296   5.099
  251PC     O12 9836   2.234   0.351   5.086
  251PC     O11 9837   2.366   0.184   5.038
  251PC      C1 9838   2.268   0.126   4.947
  251PC      HR 9839   2.170   0.119   4.995
  251PC      HS 9840   2.251   0.184   4.856
  251PC      C2 9841   2.312  -0.019   4.899
  251PC      HX 9842   2.412  -0.009   4.856
  251PC      C3 9843   2.216  -0.089   4.801
  251PC      HA 9844   2.245  -0.076   4.696
  251PC      HB 9845   2.218  -0.196   4.821
  251PC     O31 9846   2.090  -0.024   4.793
  251PC     P31 9847   1.971  -0.079   4.703
  251PC     O32 9848   1.858  -0.127   4.804
  251PC     C31 9849   1.869  -0.257   4.872
  251PC     H1A 9850   1.961  -0.309   4.845
  251PC     H1B 9851   1.878  -0.232   4.978
  251PC     C32 9852   1.741  -0.338   4.835
  251PC     H2A 9853   1.650  -0.292   4.871
  251PC     H2B 9854   1.736  -0.345   4.726
  251PC     N31 9855   1.724  -0.473   4.881
  251PC     C33 9856   1.826  -0.563   4.814
  251PC     H3A 9857   1.814  -0.563   4.705
  251PC     H3B 9858   1.809  -0.662   4.857
  251PC     H3C 9859   1.929  -0.533   4.836
  251PC     C34 9860   1.588  -0.529   4.837
  251PC     H4A 9861   1.578  -0.547   4.729
  251PC     H4B 9862   1.515  -0.456   4.872
  251PC     H4C 9863   1.578  -0.621   4.895
  251PC     C35 9864   1.739  -0.490   5.029
  251PC     H5A 9865   1.689  -0.415   5.090
  251PC     H5B 9866   1.847  -0.486   5.046
  251PC     H5C 9867   1.700  -0.590   5.052
  251PC     O33 9868   1.916   0.033   4.622
  251PC     O34 9869   2.022  -0.202   4.631
  251PC     O21 9870   2.323  -0.101   5.021
  251PC     C21 9871   2.439  -0.130   5.084
  251PC     O22 9872   2.546  -0.099   5.034
  252MY    H14T 9873   2.421   0.236   6.012
  252MY    C114 9874   2.425   0.161   6.092
  252MY    H14R 9875   2.448   0.213   6.186
  252MY    H14S 9876   2.324   0.120   6.100
  252MY    C113 9877   2.543   0.060   6.067
  252MY    H13R 9878   2.524   0.031   5.964
  252MY    H13S 9879   2.636   0.117   6.077
  252MY    C112 9880   2.543  -0.054   6.171
  252MY    H12R 9881   2.639  -0.104   6.177
  252MY    H12S 9882   2.529  -0.013   6.271
  252MY    C111 9883   2.423  -0.148   6.151
  252MY    H11R 9884   2.427  -0.234   6.218
  252MY    H11S 9885   2.343  -0.081   6.180
  252MY    C110 9886   2.398  -0.205   6.008
  252MY    H10R 9887   2.387  -0.122   5.938
  252MY    H10S 9888   2.486  -0.264   5.981
  252MY     C19 9889   2.275  -0.298   5.989
  252MY     H9R 9890   2.270  -0.371   6.071
  252MY     H9S 9891   2.186  -0.235   5.988
  252MY     C18 9892   2.277  -0.382   5.860
  252MY     H8R 9893   2.333  -0.474   5.870
  252MY     H8S 9894   2.173  -0.408   5.840
  252MY     C17 9895   2.319  -0.309   5.736
  252MY     H7R 9896   2.420  -0.266   5.742
  252MY     H7S 9897   2.315  -0.378   5.652
  252MY     C16 9898   2.226  -0.196   5.689
  252MY     H6R 9899   2.125  -0.226   5.659
  252MY     H6S 9900   2.213  -0.124   5.770
  252MY     C15 9901   2.284  -0.117   5.570
  252MY     H5R 9902   2.210  -0.044   5.539
  252MY     H5S 9903   2.365  -0.061   5.618
  252MY     C14 9904   2.334  -0.197   5.453
  252MY     H4R 9905   2.433  -0.236   5.476
  252MY     H4S 9906   2.273  -0.284   5.428
  252MY     C13 9907   2.362  -0.109   5.325
  252MY     H3R 9908   2.270  -0.055   5.301
  252MY     H3S 9909   2.436  -0.030   5.342
  252MY     C12 9910   2.417  -0.201   5.208
  252MY     H2R 9911   2.515  -0.247   5.227
  252MY     H2S 9912   2.349  -0.285   5.194
  253MY    H14T 9913   6.310   5.456   5.843
  253MY    C114 9914   6.252   5.526   5.784
  253MY    H14R 9915   6.175   5.470   5.730
  253MY    H14S 9916   6.208   5.604   5.848
  253MY    C113 9917   6.340   5.604   5.684
  253MY    H13R 9918   6.403   5.681   5.729
  253MY    H13S 9919   6.409   5.537   5.633
  253MY    C112 9920   6.254   5.680   5.581
  253MY    H12R 9921   6.178   5.612   5.542
  253MY    H12S 9922   6.208   5.760   5.638
  253MY    C111 9923   6.334   5.742   5.466
  253MY    H11R 9924   6.392   5.827   5.502
  253MY    H11S 9925   6.395   5.660   5.429
  253MY    C110 9926   6.249   5.799   5.346
  253MY    H10R 9927   6.310   5.840   5.266
  253MY    H10S 9928   6.181   5.727   5.300
  253MY     C19 9929   6.159   5.917   5.408
  253MY     H9R 9930   6.084   5.883   5.479
  253MY     H9S 9931   6.214   5.989   5.469
  253MY     C18 9932   6.105   6.001   5.286
  253MY     H8R 9933   6.187   6.031   5.221
  253MY     H8S 9934   6.052   5.922   5.231
  253MY     C17 9935   6.008   6.112   5.318
  253MY     H7R 9936   5.930   6.077   5.386
  253MY     H7S 9937   6.059   6.193   5.371
  253MY     C16 9938   5.925   6.165   5.195
  253MY     H6R 9939   5.836   6.108   5.169
  253MY     H6S 9940   5.872   6.259   5.204
  253MY     C15 9941   6.016   6.174   5.061
  253MY     H5R 9942   6.107   6.230   5.080
  253MY     H5S 9943   6.043   6.072   5.033
  253MY     C14 9944   5.935   6.236   4.949
  253MY     H4R 9945   5.855   6.171   4.913
  253MY     H4S 9946   5.879   6.324   4.984
  253MY     C13 9947   6.025   6.285   4.833
  253MY     H3R 9948   6.078   6.375   4.867
  253MY     H3S 9949   6.101   6.210   4.811
  253MY     C12 9950   5.936   6.318   4.707
  253MY     H2R 9951   5.920   6.223   4.656
  253MY     H2S 9952   5.838   6.350   4.743
  254PC     C11 9953   5.999   6.426   4.626
  254PC     O12 9954   5.942   6.532   4.590
  254PC     O11 9955   6.123   6.397   4.587
  254PC      C1 9956   6.201   6.496   4.513
  254PC      HR 9957   6.188   6.485   4.405
  254PC      HS 9958   6.179   6.598   4.547
  254PC      C2 9959   6.351   6.472   4.527
  254PC      HX 9960   6.406   6.544   4.465
  254PC      C3 9961   6.402   6.333   4.482
  254PC      HA 9962   6.504   6.308   4.512
  254PC      HB 9963   6.337   6.255   4.524
  254PC     O31 9964   6.392   6.322   4.340
  254PC     P31 9965   6.512   6.352   4.240
  254PC     O32 9966   6.498   6.511   4.231
  254PC     C31 9967   6.609   6.601   4.266
  254PC     H1A 9968   6.572   6.700   4.295
  254PC     H1B 9969   6.646   6.569   4.364
  254PC     C32 9970   6.726   6.605   4.161
  254PC     H2A 9971   6.810   6.668   4.191
  254PC     H2B 9972   6.761   6.502   4.164
  254PC     N31 9973   6.711   6.637   4.017
  254PC     C33 9974   6.605   6.549   3.954
  254PC     H3A 9975   6.508   6.571   3.998
  254PC     H3B 9976   6.642   6.447   3.963
  254PC     H3C 9977   6.607   6.578   3.849
  254PC     C34 9978   6.836   6.604   3.942
  254PC     H4A 9979   6.921   6.649   3.993
  254PC     H4B 9980   6.826   6.646   3.842
  254PC     H4C 9981   6.844   6.495   3.943
  254PC     C35 9982   6.671   6.779   3.984
  254PC     H5A 9983   6.669   6.794   3.876
  254PC     H5B 9984   6.730   6.857   4.031
  254PC     H5C 9985   6.570   6.795   4.023
  254PC     O33 9986   6.639   6.326   4.312
  254PC     O34 9987   6.472   6.287   4.111
  254PC     O21 9988   6.390   6.475   4.665
  254PC     C21 9989   6.429   6.596   4.710
  254PC     O22 9990   6.450   6.690   4.640
  255MY    H14T 9991   6.306   7.248   6.078
  255MY    C114 9992   6.260   7.159   6.034
  255MY    H14R 9993   6.202   7.114   6.114
  255MY    H14S 9994   6.189   7.190   5.957
  255MY    C113 9995   6.366   7.064   5.982
  255MY    H13R 9996   6.446   7.116   5.928
  255MY    H13S 9997   6.408   7.022   6.073
  255MY    C112 9998   6.310   6.957   5.892
  255MY    H12R 9999   6.216   6.922   5.935
  255MY    H12S10000   6.280   7.006   5.798
  255MY    C11110001   6.397   6.840   5.867
  255MY    H11R10002   6.438   6.805   5.961
  255MY    H11S10003   6.346   6.755   5.820
  255MY    C11010004   6.517   6.875   5.771
  255MY    H10R10005   6.569   6.959   5.818
  255MY    H10S10006   6.578   6.784   5.775
  255MY     C1910007   6.479   6.905   5.627
  255MY     H9R10008   6.433   6.815   5.586
  255MY     H9S10009   6.412   6.992   5.620
  255MY     C1810010   6.604   6.919   5.537
  255MY     H8R10011   6.651   7.008   5.579
  255MY     H8S10012   6.665   6.830   5.553
  255MY     C1710013   6.596   6.945   5.383
  255MY     H7R10014   6.530   7.029   5.362
  255MY     H7S10015   6.694   6.982   5.351
  255MY     C1610016   6.550   6.824   5.298
  255MY     H6R10017   6.603   6.734   5.331
  255MY     H6S10018   6.446   6.802   5.323
  255MY     C1510019   6.539   6.846   5.149
  255MY     H5R10020   6.463   6.923   5.131
  255MY     H5S10021   6.631   6.862   5.093
  255MY     C1410022   6.493   6.717   5.084
  255MY     H4R10023   6.583   6.657   5.098
  255MY     H4S10024   6.407   6.674   5.136
  255MY     C1310025   6.461   6.723   4.933
  255MY     H3R10026   6.394   6.808   4.917
  255MY     H3S10027   6.549   6.760   4.878
  255MY     C1210028   6.427   6.594   4.864
  255MY     H2R10029   6.488   6.508   4.894
  255MY     H2S10030   6.324   6.575   4.896
  256MY    H14T10031   5.064   4.534   5.907
  256MY    C11410032   5.069   4.632   5.860
  256MY    H14R10033   5.056   4.617   5.753
  256MY    H14S10034   4.988   4.695   5.898
  256MY    C11310035   5.208   4.710   5.891
  256MY    H13R10036   5.202   4.803   5.835
  256MY    H13S10037   5.224   4.728   5.997
  256MY    C11210038   5.329   4.617   5.841
  256MY    H12R10039   5.418   4.661   5.886
  256MY    H12S10040   5.309   4.515   5.877
  256MY    C11110041   5.340   4.607   5.688
  256MY    H11R10042   5.248   4.573   5.639
  256MY    H11S10043   5.354   4.709   5.653
  256MY    C11010044   5.454   4.514   5.639
  256MY    H10R10045   5.550   4.546   5.681
  256MY    H10S10046   5.443   4.412   5.678
  256MY     C1910047   5.461   4.507   5.486
  256MY     H9R10048   5.375   4.459   5.439
  256MY     H9S10049   5.484   4.610   5.457
  256MY     C1810050   5.585   4.422   5.439
  256MY     H8R10051   5.684   4.455   5.470
  256MY     H8S10052   5.582   4.324   5.487
  256MY     C1710053   5.588   4.421   5.281
  256MY     H7R10054   5.649   4.339   5.243
  256MY     H7S10055   5.484   4.406   5.249
  256MY     C1610056   5.628   4.555   5.210
  256MY     H6R10057   5.545   4.625   5.199
  256MY     H6S10058   5.712   4.600   5.264
  256MY     C1510059   5.676   4.512   5.069
  256MY     H5R10060   5.710   4.596   5.009
  256MY     H5S10061   5.762   4.447   5.085
  256MY     C1410062   5.561   4.436   4.995
  256MY     H4R10063   5.540   4.335   5.033
  256MY     H4S10064   5.475   4.502   5.005
  256MY     C1310065   5.597   4.427   4.851
  256MY     H3R10066   5.506   4.433   4.791
  256MY     H3S10067   5.652   4.520   4.834
  256MY     C1210068   5.684   4.304   4.815
  256MY     H2R10069   5.786   4.323   4.848
  256MY     H2S10070   5.669   4.211   4.870
  257PC     C1110071   5.695   4.259   4.675
  257PC     O1210072   5.682   4.328   4.581
  257PC     O1110073   5.704   4.126   4.659
  257PC      C110074   5.689   4.063   4.530
  257PC      HR10075   5.724   4.129   4.449
  257PC      HS10076   5.744   3.969   4.519
  257PC      C210077   5.541   4.030   4.491
  257PC      HX10078   5.524   3.936   4.545
  257PC      C310079   5.513   3.995   4.345
  257PC      HA10080   5.573   3.908   4.317
  257PC      HB10081   5.411   3.957   4.341
  257PC     O3110082   5.531   4.108   4.252
  257PC     P3110083   5.515   4.085   4.093
  257PC     O3210084   5.372   4.069   4.067
  257PC     C3110085   5.286   4.178   4.100
  257PC     H1A10086   5.271   4.172   4.208
  257PC     H1B10087   5.328   4.276   4.077
  257PC     C3210088   5.143   4.162   4.033
  257PC     H2A10089   5.092   4.072   4.070
  257PC     H2B10090   5.079   4.249   4.055
  257PC     N3110091   5.147   4.143   3.886
  257PC     C3310092   5.218   4.258   3.819
  257PC     H3A10093   5.176   4.343   3.872
  257PC     H3B10094   5.199   4.262   3.711
  257PC     H3C10095   5.325   4.260   3.838
  257PC     C3410096   5.007   4.136   3.847
  257PC     H4A10097   5.003   4.122   3.739
  257PC     H4B10098   4.951   4.225   3.874
  257PC     H4C10099   4.963   4.050   3.899
  257PC     C3510100   5.211   4.019   3.844
  257PC     H5A10101   5.319   4.020   3.854
  257PC     H5B10102   5.183   4.009   3.739
  257PC     H5C10103   5.158   3.942   3.900
  257PC     O3310104   5.569   4.195   4.011
  257PC     O3410105   5.577   3.949   4.071
  257PC     O2110106   5.453   4.132   4.530
  257PC     C2110107   5.387   4.112   4.641
  257PC     O2210108   5.384   4.003   4.703
  258MY    H14T10109   5.298   5.026   5.775
  258MY    C11410110   5.261   5.101   5.705
  258MY    H14R10111   5.245   5.200   5.749
  258MY    H14S10112   5.332   5.111   5.622
  258MY    C11310113   5.118   5.065   5.649
  258MY    H13R10114   5.062   5.029   5.736
  258MY    H13S10115   5.068   5.156   5.616
  258MY    C11210116   5.107   4.959   5.537
  258MY    H12R10117   5.128   5.010   5.443
  258MY    H12S10118   5.172   4.873   5.554
  258MY    C11110119   4.961   4.914   5.526
  258MY    H11R10120   4.945   4.855   5.616
  258MY    H11S10121   4.888   4.995   5.530
  258MY    C11010122   4.938   4.823   5.404
  258MY    H10R10123   4.837   4.782   5.407
  258MY    H10S10124   4.952   4.890   5.319
  258MY     C1910125   5.035   4.706   5.390
  258MY     H9R10126   5.137   4.741   5.407
  258MY     H9S10127   5.010   4.631   5.465
  258MY     C1810128   5.031   4.643   5.244
  258MY     H8R10129   4.925   4.625   5.224
  258MY     H8S10130   5.076   4.706   5.166
  258MY     C1710131   5.105   4.508   5.231
  258MY     H7R10132   5.196   4.501   5.291
  258MY     H7S10133   5.041   4.425   5.261
  258MY     C1610134   5.137   4.494   5.085
  258MY     H6R10135   5.045   4.504   5.026
  258MY     H6S10136   5.204   4.572   5.049
  258MY     C1510137   5.201   4.358   5.044
  258MY     H5R10138   5.296   4.348   5.096
  258MY     H5S10139   5.140   4.273   5.078
  258MY     C1410140   5.223   4.357   4.893
  258MY     H4R10141   5.127   4.350   4.843
  258MY     H4S10142   5.271   4.452   4.870
  258MY     C1310143   5.300   4.239   4.847
  258MY     H3R10144   5.400   4.232   4.889
  258MY     H3S10145   5.245   4.151   4.881
  258MY     C1210146   5.313   4.230   4.689
  258MY     H2R10147   5.215   4.243   4.643
  258MY     H2S10148   5.366   4.317   4.650
  259MY    H14T10149   0.664   1.040   6.264
  259MY    C11410150   0.640   1.123   6.198
  259MY    H14R10151   0.553   1.098   6.137
  259MY    H14S10152   0.610   1.213   6.252
  259MY    C11310153   0.761   1.151   6.114
  259MY    H13R10154   0.729   1.222   6.038
  259MY    H13S10155   0.845   1.188   6.174
  259MY    C11210156   0.796   1.019   6.041
  259MY    H12R10157   0.834   0.944   6.111
  259MY    H12S10158   0.708   0.969   5.999
  259MY    C11110159   0.887   1.034   5.918
  259MY    H11R10160   0.890   0.943   5.859
  259MY    H11S10161   0.834   1.111   5.861
  259MY    C11010162   1.030   1.077   5.966
  259MY    H10R10163   1.036   1.175   6.013
  259MY    H10S10164   1.058   1.005   6.043
  259MY     C1910165   1.139   1.079   5.864
  259MY     H9R10166   1.222   1.118   5.924
  259MY     H9S10167   1.159   0.974   5.844
  259MY     C1810168   1.112   1.159   5.733
  259MY     H8R10169   1.061   1.110   5.650
  259MY     H8S10170   1.053   1.244   5.768
  259MY     C1710171   1.240   1.226   5.675
  259MY     H7R10172   1.208   1.292   5.594
  259MY     H7S10173   1.289   1.294   5.745
  259MY     C1610174   1.353   1.141   5.613
  259MY     H6R10175   1.416   1.205   5.551
  259MY     H6S10176   1.415   1.102   5.694
  259MY     C1510177   1.296   1.021   5.523
  259MY     H5R10178   1.247   0.943   5.583
  259MY     H5S10179   1.223   1.071   5.459
  259MY     C1410180   1.394   0.944   5.440
  259MY     H4R10181   1.474   0.904   5.502
  259MY     H4S10182   1.342   0.857   5.400
  259MY     C1310183   1.469   1.028   5.336
  259MY     H3R10184   1.402   1.066   5.258
  259MY     H3S10185   1.523   1.110   5.385
  259MY     C1210186   1.559   0.936   5.248
  259MY     H2R10187   1.615   1.005   5.183
  259MY     H2S10188   1.624   0.869   5.304
  260PC     C1110189   1.476   0.850   5.154
  260PC     O1210190   1.424   0.878   5.049
  260PC     O1110191   1.436   0.733   5.212
  260PC      C110192   1.356   0.633   5.132
  260PC      HR10193   1.319   0.548   5.192
  260PC      HS10194   1.267   0.690   5.101
  260PC      C210195   1.430   0.581   4.998
  260PC      HX10196   1.446   0.656   4.921
  260PC      C310197   1.335   0.480   4.933
  260PC      HA10198   1.305   0.409   5.011
  260PC      HB10199   1.243   0.531   4.905
  260PC     O3110200   1.393   0.423   4.815
  260PC     P3110201   1.391   0.498   4.671
  260PC     O3210202   1.521   0.586   4.678
  260PC     C3110203   1.652   0.529   4.674
  260PC     H1A10204   1.700   0.519   4.772
  260PC     H1B10205   1.635   0.430   4.630
  260PC     C3210206   1.746   0.607   4.582
  260PC     H2A10207   1.749   0.708   4.623
  260PC     H2B10208   1.845   0.561   4.581
  260PC     N3110209   1.706   0.631   4.441
  260PC     C3310210   1.610   0.738   4.438
  260PC     H3A10211   1.615   0.778   4.337
  260PC     H3B10212   1.631   0.809   4.519
  260PC     H3C10213   1.519   0.679   4.450
  260PC     C3410214   1.656   0.511   4.362
  260PC     H4A10215   1.580   0.468   4.427
  260PC     H4B10216   1.739   0.442   4.346
  260PC     H4C10217   1.616   0.537   4.264
  260PC     C3510218   1.825   0.693   4.368
  260PC     H5A10219   1.803   0.700   4.262
  260PC     H5B10220   1.916   0.633   4.372
  260PC     H5C10221   1.843   0.793   4.407
  260PC     O3310222   1.406   0.405   4.559
  260PC     O3410223   1.273   0.587   4.666
  260PC     O2110224   1.553   0.509   5.035
  260PC     C2110225   1.666   0.579   5.058
  260PC     O2210226   1.679   0.698   5.037
  261MY    H14T10227   1.568   1.287   5.924
  261MY    C11410228   1.644   1.231   5.979
  261MY    H14R10229   1.742   1.260   5.942
  261MY    H14S10230   1.640   1.266   6.082
  261MY    C11310231   1.614   1.080   5.967
  261MY    H13R10232   1.517   1.052   6.008
  261MY    H13S10233   1.626   1.063   5.860
  261MY    C11210234   1.729   1.007   6.040
  261MY    H12R10235   1.817   1.040   5.985
  261MY    H12S10236   1.725   1.054   6.139
  261MY    C11110237   1.722   0.857   6.050
  261MY    H11R10238   1.792   0.809   6.119
  261MY    H11S10239   1.622   0.828   6.081
  261MY    C11010240   1.752   0.763   5.930
  261MY    H10R10241   1.731   0.657   5.948
  261MY    H10S10242   1.675   0.784   5.855
  261MY     C1910243   1.883   0.791   5.855
  261MY     H9R10244   1.900   0.899   5.862
  261MY     H9S10245   1.963   0.734   5.903
  261MY     C1810246   1.866   0.748   5.704
  261MY     H8R10247   1.772   0.788   5.665
  261MY     H8S10248   1.951   0.779   5.644
  261MY     C1710249   1.845   0.598   5.700
  261MY     H7R10250   1.932   0.549   5.745
  261MY     H7S10251   1.754   0.576   5.757
  261MY     C1610252   1.815   0.549   5.557
  261MY     H6R10253   1.779   0.446   5.563
  261MY     H6S10254   1.721   0.595   5.526
  261MY     C1510255   1.938   0.560   5.467
  261MY     H5R10256   1.951   0.668   5.461
  261MY     H5S10257   2.034   0.528   5.509
  261MY     C1410258   1.924   0.498   5.325
  261MY     H4R10259   2.004   0.539   5.262
  261MY     H4S10260   1.951   0.395   5.347
  261MY     C1310261   1.778   0.505   5.265
  261MY     H3R10262   1.710   0.432   5.309
  261MY     H3S10263   1.736   0.602   5.291
  261MY     C1210264   1.785   0.504   5.113
  261MY     H2R10265   1.882   0.546   5.085
  261MY     H2S10266   1.792   0.405   5.066
  262MY    H14T10267   2.264   1.471   6.120
  262MY    C11410268   2.175   1.534   6.119
  262MY    H14R10269   2.084   1.474   6.115
  262MY    H14S10270   2.164   1.590   6.211
  262MY    C11310271   2.169   1.627   6.003
  262MY    H13R10272   2.178   1.572   5.909
  262MY    H13S10273   2.075   1.683   6.000
  262MY    C11210274   2.284   1.732   6.007
  262MY    H12R10275   2.271   1.812   6.081
  262MY    H12S10276   2.379   1.684   6.032
  262MY    C11110277   2.309   1.798   5.865
  262MY    H11R10278   2.395   1.864   5.880
  262MY    H11S10279   2.335   1.718   5.795
  262MY    C11010280   2.193   1.879   5.819
  262MY    H10R10281   2.106   1.815   5.835
  262MY    H10S10282   2.181   1.965   5.885
  262MY     C1910283   2.192   1.913   5.668
  262MY     H9R10284   2.225   1.824   5.614
  262MY     H9S10285   2.092   1.947   5.638
  262MY     C1810286   2.300   2.020   5.627
  262MY     H8R10287   2.279   2.109   5.686
  262MY     H8S10288   2.403   1.992   5.652
  262MY     C1710289   2.284   2.053   5.479
  262MY     H7R10290   2.294   1.974   5.404
  262MY     H7S10291   2.183   2.093   5.469
  262MY     C1610292   2.383   2.163   5.431
  262MY     H6R10293   2.390   2.249   5.498
  262MY     H6S10294   2.483   2.120   5.418
  262MY     C1510295   2.347   2.235   5.294
  262MY     H5R10296   2.419   2.312   5.267
  262MY     H5S10297   2.350   2.164   5.210
  262MY     C1410298   2.204   2.295   5.290
  262MY     H4R10299   2.119   2.231   5.310
  262MY     H4S10300   2.207   2.368   5.371
  262MY     C1310301   2.178   2.365   5.148
  262MY     H3R10302   2.254   2.439   5.119
  262MY     H3S10303   2.186   2.298   5.062
  262MY     C1210304   2.042   2.443   5.158
  262MY     H2R10305   1.958   2.376   5.174
  262MY     H2S10306   2.048   2.515   5.240
  263PC     C1110307   2.025   2.522   5.027
  263PC     O1210308   2.083   2.494   4.921
  263PC     O1110309   1.919   2.609   5.030
  263PC      C110310   1.864   2.671   4.910
  263PC      HR10311   1.831   2.765   4.956
  263PC      HS10312   1.943   2.693   4.838
  263PC      C210313   1.749   2.585   4.848
  263PC      HX10314   1.800   2.500   4.801
  263PC      C310315   1.661   2.648   4.733
  263PC      HA10316   1.590   2.573   4.698
  263PC      HB10317   1.601   2.730   4.773
  263PC     O3110318   1.747   2.723   4.640
  263PC     P3110319   1.811   2.641   4.518
  263PC     O3210320   1.933   2.558   4.579
  263PC     C3110321   2.067   2.616   4.566
  263PC     H1A10322   2.071   2.725   4.571
  263PC     H1B10323   2.134   2.582   4.646
  263PC     C3210324   2.113   2.570   4.422
  263PC     H2A10325   2.113   2.461   4.418
  263PC     H2B10326   2.045   2.606   4.344
  263PC     N3110327   2.249   2.613   4.378
  263PC     C3310328   2.268   2.549   4.249
  263PC     H3A10329   2.370   2.563   4.214
  263PC     H3B10330   2.193   2.581   4.176
  263PC     H3C10331   2.263   2.440   4.261
  263PC     C3410332   2.364   2.568   4.460
  263PC     H4A10333   2.344   2.470   4.504
  263PC     H4B10334   2.369   2.633   4.547
  263PC     H4C10335   2.457   2.575   4.404
  263PC     C3510336   2.247   2.760   4.347
  263PC     H5A10337   2.346   2.775   4.302
  263PC     H5B10338   2.227   2.820   4.436
  263PC     H5C10339   2.171   2.783   4.272
  263PC     O3310340   1.706   2.548   4.477
  263PC     O3410341   1.858   2.736   4.418
  263PC     O2110342   1.649   2.542   4.953
  263PC     C2110343   1.664   2.424   5.008
  263PC     O2210344   1.740   2.336   4.973
  264MY    H14T10345   2.447   2.287   6.277
  264MY    C11410346   2.419   2.393   6.277
  264MY    H14R10347   2.440   2.431   6.377
  264MY    H14S10348   2.483   2.454   6.214
  264MY    C11310349   2.279   2.432   6.232
  264MY    H13R10350   2.202   2.377   6.287
  264MY    H13S10351   2.260   2.537   6.254
  264MY    C11210352   2.253   2.401   6.083
  264MY    H12R10353   2.342   2.433   6.027
  264MY    H12S10354   2.241   2.293   6.072
  264MY    C11110355   2.134   2.476   6.040
  264MY    H11R10356   2.047   2.430   6.088
  264MY    H11S10357   2.150   2.579   6.070
  264MY    C11010358   2.106   2.455   5.889
  264MY    H10R10359   2.192   2.503   5.842
  264MY    H10S10360   2.112   2.348   5.867
  264MY     C1910361   1.982   2.526   5.824
  264MY     H9R10362   1.893   2.479   5.865
  264MY     H9S10363   1.973   2.633   5.846
  264MY     C1810364   1.981   2.506   5.672
  264MY     H8R10365   2.071   2.548   5.626
  264MY     H8S10366   1.980   2.401   5.642
  264MY     C1710367   1.853   2.574   5.613
  264MY     H7R10368   1.767   2.538   5.670
  264MY     H7S10369   1.856   2.683   5.623
  264MY     C1610370   1.830   2.543   5.462
  264MY     H6R10371   1.910   2.570   5.391
  264MY     H6S10372   1.815   2.435   5.459
  264MY     C1510373   1.703   2.617   5.415
  264MY     H5R10374   1.624   2.603   5.490
  264MY     H5S10375   1.711   2.726   5.422
  264MY     C1410376   1.662   2.586   5.278
  264MY     H4R10377   1.563   2.628   5.258
  264MY     H4S10378   1.736   2.619   5.205
  264MY     C1310379   1.641   2.433   5.262
  264MY     H3R10380   1.731   2.372   5.264
  264MY     H3S10381   1.574   2.401   5.342
  264MY     C1210382   1.570   2.406   5.127
  264MY     H2R10383   1.527   2.305   5.124
  264MY     H2S10384   1.486   2.474   5.111
  265MY    H14T10385   6.031   5.296   6.237
  265MY    C11410386   6.060   5.287   6.132
  265MY    H14R10387   5.966   5.280   6.077
  265MY    H14S10388   6.107   5.380   6.098
  265MY    C11310389   6.147   5.163   6.097
  265MY    H13R10390   6.220   5.148   6.176
  265MY    H13S10391   6.071   5.085   6.099
  265MY    C11210392   6.213   5.179   5.960
  265MY    H12R10393   6.291   5.256   5.967
  265MY    H12S10394   6.269   5.086   5.951
  265MY    C11110395   6.124   5.206   5.851
  265MY    H11R10396   6.044   5.134   5.865
  265MY    H11S10397   6.075   5.303   5.858
  265MY    C11010398   6.191   5.181   5.717
  265MY    H10R10399   6.265   5.258   5.695
  265MY    H10S10400   6.240   5.084   5.715
  265MY     C1910401   6.092   5.170   5.603
  265MY     H9R10402   6.144   5.117   5.522
  265MY     H9S10403   6.008   5.104   5.625
  265MY     C1810404   6.041   5.309   5.554
  265MY     H8R10405   6.004   5.363   5.641
  265MY     H8S10406   6.120   5.375   5.516
  265MY     C1710407   5.922   5.277   5.465
  265MY     H7R10408   5.951   5.210   5.384
  265MY     H7S10409   5.847   5.222   5.523
  265MY     C1610410   5.840   5.397   5.413
  265MY     H6R10411   5.750   5.355   5.368
  265MY     H6S10412   5.799   5.458   5.494
  265MY     C1510413   5.896   5.492   5.306
  265MY     H5R10414   5.988   5.544   5.336
  265MY     H5S10415   5.920   5.418   5.230
  265MY     C1410416   5.804   5.602   5.244
  265MY     H4R10417   5.718   5.549   5.202
  265MY     H4S10418   5.764   5.674   5.316
  265MY     C1310419   5.874   5.667   5.129
  265MY     H3R10420   5.970   5.707   5.162
  265MY     H3S10421   5.896   5.586   5.059
  265MY     C1210422   5.793   5.780   5.061
  265MY     H2R10423   5.698   5.729   5.044
  265MY     H2S10424   5.785   5.864   5.130
  266PC     C1110425   5.845   5.830   4.928
  266PC     O1210426   5.943   5.778   4.881
  266PC     O1110427   5.765   5.912   4.864
  266PC      C110428   5.797   5.954   4.726
  266PC      HR10429   5.873   6.032   4.728
  266PC      HS10430   5.833   5.873   4.662
  266PC      C210431   5.677   6.021   4.659
  266PC      HX10432   5.588   5.957   4.663
  266PC      C310433   5.701   6.037   4.509
  266PC      HA10434   5.694   5.939   4.463
  266PC      HB10435   5.621   6.102   4.469
  266PC     O3110436   5.827   6.096   4.473
  266PC     P3110437   5.855   6.148   4.328
  266PC     O3210438   5.831   6.303   4.341
  266PC     C3110439   5.703   6.358   4.354
  266PC     H1A10440   5.627   6.291   4.313
  266PC     H1B10441   5.682   6.370   4.460
  266PC     C3210442   5.704   6.491   4.279
  266PC     H2A10443   5.625   6.560   4.309
  266PC     H2B10444   5.797   6.537   4.311
  266PC     N3110445   5.706   6.487   4.131
  266PC     C3310446   5.747   6.628   4.090
  266PC     H3A10447   5.850   6.640   4.123
  266PC     H3B10448   5.689   6.692   4.156
  266PC     H3C10449   5.740   6.648   3.983
  266PC     C3410450   5.568   6.460   4.080
  266PC     H4A10451   5.498   6.529   4.128
  266PC     H4B10452   5.536   6.360   4.109
  266PC     H4C10453   5.568   6.464   3.971
  266PC     C3510454   5.804   6.386   4.058
  266PC     H5A10455   5.902   6.401   4.104
  266PC     H5B10456   5.811   6.406   3.951
  266PC     H5C10457   5.779   6.279   4.060
  266PC     O3310458   5.995   6.122   4.293
  266PC     O3410459   5.746   6.099   4.240
  266PC     O2110460   5.663   6.154   4.716
  266PC     C2110461   5.537   6.201   4.717
  266PC     O2210462   5.441   6.135   4.682
  267MY    H14T10463   4.912   6.969   5.869
  267MY    C11410464   4.958   6.913   5.951
  267MY    H14R10465   5.013   6.978   6.019
  267MY    H14S10466   4.881   6.875   6.019
  267MY    C11310467   5.059   6.805   5.912
  267MY    H13R10468   5.130   6.784   5.993
  267MY    H13S10469   5.005   6.710   5.902
  267MY    C11210470   5.141   6.823   5.792
  267MY    H12R10471   5.071   6.842   5.710
  267MY    H12S10472   5.204   6.912   5.799
  267MY    C11110473   5.229   6.701   5.752
  267MY    H11R10474   5.310   6.692   5.824
  267MY    H11S10475   5.178   6.605   5.765
  267MY    C11010476   5.286   6.705   5.613
  267MY    H10R10477   5.309   6.812   5.604
  267MY    H10S10478   5.377   6.647   5.606
  267MY     C1910479   5.183   6.663   5.517
  267MY     H9R10480   5.142   6.564   5.538
  267MY     H9S10481   5.100   6.735   5.523
  267MY     C1810482   5.221   6.664   5.364
  267MY     H8R10483   5.137   6.640   5.299
  267MY     H8S10484   5.259   6.763   5.338
  267MY     C1710485   5.336   6.562   5.337
  267MY     H7R10486   5.412   6.576   5.414
  267MY     H7S10487   5.306   6.457   5.347
  267MY     C1610488   5.386   6.586   5.195
  267MY     H6R10489   5.291   6.604   5.144
  267MY     H6S10490   5.449   6.674   5.206
  267MY     C1510491   5.460   6.468   5.128
  267MY     H5R10492   5.560   6.457   5.169
  267MY     H5S10493   5.412   6.378   5.166
  267MY     C1410494   5.479   6.482   4.978
  267MY     H4R10495   5.383   6.516   4.938
  267MY     H4S10496   5.554   6.557   4.953
  267MY     C1310497   5.514   6.337   4.919
  267MY     H3R10498   5.606   6.297   4.962
  267MY     H3S10499   5.437   6.270   4.960
  267MY     C1210500   5.527   6.342   4.765
  267MY     H2R10501   5.435   6.370   4.713
  267MY     H2S10502   5.609   6.405   4.730
  268MY    H14T10503   3.452   0.059   6.119
  268MY    C11410504   3.449   0.129   6.035
  268MY    H14R10505   3.384   0.215   6.052
  268MY    H14S10506   3.547   0.159   5.997
  268MY    C11310507   3.378   0.038   5.926
  268MY    H13R10508   3.434  -0.056   5.922
  268MY    H13S10509   3.276   0.018   5.959
  268MY    C11210510   3.361   0.104   5.791
  268MY    H12R10511   3.283   0.181   5.800
  268MY    H12S10512   3.455   0.147   5.757
  268MY    C11110513   3.302   0.004   5.689
  268MY    H11R10514   3.380  -0.063   5.653
  268MY    H11S10515   3.217  -0.047   5.734
  268MY    C11010516   3.252   0.077   5.568
  268MY    H10R10517   3.263  -0.001   5.493
  268MY    H10S10518   3.146   0.092   5.593
  268MY     C1910519   3.327   0.209   5.517
  268MY     H9R10520   3.295   0.291   5.582
  268MY     H9S10521   3.434   0.205   5.532
  268MY     C1810522   3.295   0.252   5.366
  268MY     H8R10523   3.196   0.298   5.361
  268MY     H8S10524   3.369   0.326   5.334
  268MY     C1710525   3.305   0.140   5.260
  268MY     H7R10526   3.407   0.104   5.265
  268MY     H7S10527   3.236   0.058   5.283
  268MY     C1610528   3.269   0.196   5.117
  268MY     H6R10529   3.181   0.258   5.130
  268MY     H6S10530   3.344   0.265   5.076
  268MY     C1510531   3.245   0.075   5.017
  268MY     H5R10532   3.306  -0.009   5.049
  268MY     H5S10533   3.141   0.045   5.034
  268MY     C1410534   3.272   0.098   4.871
  268MY     H4R10535   3.216   0.185   4.837
  268MY     H4S10536   3.373   0.133   4.848
  268MY     C1310537   3.233  -0.020   4.780
  268MY     H3R10538   3.268  -0.004   4.678
  268MY     H3S10539   3.282  -0.111   4.815
  268MY     C1210540   3.079  -0.049   4.772
  268MY     H2R10541   3.041  -0.094   4.864
  268MY     H2S10542   3.028   0.045   4.751
  269PC     C1110543   3.047  -0.140   4.653
  269PC     O1210544   3.057  -0.114   4.533
  269PC     O1110545   3.001  -0.256   4.696
  269PC      C110546   2.954  -0.355   4.598
  269PC      HR10547   2.919  -0.440   4.658
  269PC      HS10548   2.875  -0.324   4.530
  269PC      C210549   3.062  -0.406   4.512
  269PC      HX10550   3.120  -0.329   4.461
  269PC      C310551   3.012  -0.506   4.412
  269PC      HA10552   3.095  -0.558   4.364
  269PC      HB10553   2.957  -0.587   4.462
  269PC     O3110554   2.935  -0.458   4.295
  269PC     P3110555   2.961  -0.495   4.144
  269PC     O3210556   3.088  -0.414   4.106
  269PC     C3110557   3.085  -0.276   4.133
  269PC     H1A10558   2.991  -0.228   4.105
  269PC     H1B10559   3.095  -0.251   4.239
  269PC     C3210560   3.190  -0.214   4.038
  269PC     H2A10561   3.198  -0.107   4.057
  269PC     H2B10562   3.289  -0.253   4.062
  269PC     N3110563   3.176  -0.225   3.892
  269PC     C3310564   3.252  -0.108   3.843
  269PC     H3A10565   3.354  -0.113   3.880
  269PC     H3B10566   3.199  -0.027   3.894
  269PC     H3C10567   3.246  -0.102   3.734
  269PC     C3410568   3.037  -0.221   3.847
  269PC     H4A10569   2.975  -0.299   3.892
  269PC     H4B10570   3.048  -0.229   3.739
  269PC     H4C10571   3.004  -0.121   3.876
  269PC     C3510572   3.238  -0.356   3.845
  269PC     H5A10573   3.196  -0.439   3.902
  269PC     H5B10574   3.343  -0.359   3.876
  269PC     H5C10575   3.226  -0.365   3.737
  269PC     O3310576   2.981  -0.638   4.137
  269PC     O3410577   2.850  -0.442   4.059
  269PC     O2110578   3.158  -0.485   4.594
  269PC     C2110579   3.283  -0.441   4.614
  269PC     O2210580   3.334  -0.336   4.580
  270MY    H14T10581   2.899  -0.930   5.537
  270MY    C11410582   2.964  -1.008   5.577
  270MY    H14R10583   2.887  -1.075   5.618
  270MY    H14S10584   3.017  -1.052   5.493
  270MY    C11310585   3.065  -0.965   5.684
  270MY    H13R10586   3.007  -0.928   5.769
  270MY    H13S10587   3.121  -1.054   5.714
  270MY    C11210588   3.161  -0.848   5.660
  270MY    H12R10589   3.096  -0.763   5.642
  270MY    H12S10590   3.219  -0.832   5.751
  270MY    C11110591   3.248  -0.873   5.537
  270MY    H11R10592   3.311  -0.961   5.555
  270MY    H11S10593   3.183  -0.896   5.453
  270MY    C11010594   3.344  -0.762   5.491
  270MY    H10R10595   3.277  -0.679   5.470
  270MY    H10S10596   3.403  -0.732   5.577
  270MY     C1910597   3.433  -0.794   5.365
  270MY     H9R10598   3.525  -0.848   5.390
  270MY     H9S10599   3.365  -0.859   5.310
  270MY     C1810600   3.482  -0.668   5.298
  270MY     H8R10601   3.395  -0.604   5.281
  270MY     H8S10602   3.547  -0.614   5.367
  270MY     C1710603   3.560  -0.699   5.170
  270MY     H7R10604   3.605  -0.605   5.137
  270MY     H7S10605   3.648  -0.763   5.179
  270MY     C1610606   3.477  -0.770   5.065
  270MY     H6R10607   3.542  -0.845   5.020
  270MY     H6S10608   3.395  -0.829   5.107
  270MY     C1510609   3.415  -0.678   4.959
  270MY     H5R10610   3.351  -0.741   4.898
  270MY     H5S10611   3.344  -0.610   5.005
  270MY     C1410612   3.521  -0.593   4.876
  270MY     H4R10613   3.589  -0.534   4.937
  270MY     H4S10614   3.583  -0.667   4.825
  270MY     C1310615   3.472  -0.488   4.769
  270MY     H3R10616   3.428  -0.409   4.830
  270MY     H3S10617   3.554  -0.447   4.709
  270MY     C1210618   3.357  -0.551   4.685
  270MY     H2R10619   3.400  -0.619   4.611
  270MY     H2S10620   3.290  -0.600   4.756
  271MY    H14T10621   5.411   5.426   6.495
  271MY    C11410622   5.440   5.526   6.462
  271MY    H14R10623   5.375   5.595   6.516
  271MY    H14S10624   5.546   5.545   6.475
  271MY    C11310625   5.414   5.544   6.316
  271MY    H13R10626   5.309   5.519   6.296
  271MY    H13S10627   5.426   5.649   6.288
  271MY    C11210628   5.512   5.455   6.246
  271MY    H12R10629   5.611   5.465   6.291
  271MY    H12S10630   5.471   5.356   6.268
  271MY    C11110631   5.528   5.464   6.093
  271MY    H11R10632   5.593   5.549   6.071
  271MY    H11S10633   5.575   5.372   6.057
  271MY    C11010634   5.396   5.473   6.009
  271MY    H10R10635   5.338   5.381   6.017
  271MY    H10S10636   5.332   5.547   6.059
  271MY     C1910637   5.423   5.500   5.860
  271MY     H9R10638   5.323   5.508   5.818
  271MY     H9S10639   5.485   5.589   5.848
  271MY     C1810640   5.478   5.374   5.788
  271MY     H8R10641   5.569   5.336   5.833
  271MY     H8S10642   5.404   5.298   5.816
  271MY     C1710643   5.506   5.387   5.644
  271MY     H7R10644   5.603   5.436   5.644
  271MY     H7S10645   5.526   5.284   5.613
  271MY     C1610646   5.402   5.451   5.546
  271MY     H6R10647   5.307   5.398   5.551
  271MY     H6S10648   5.380   5.555   5.574
  271MY     C1510649   5.440   5.437   5.399
  271MY     H5R10650   5.546   5.458   5.383
  271MY     H5S10651   5.423   5.332   5.376
  271MY     C1410652   5.339   5.503   5.299
  271MY     H4R10653   5.248   5.442   5.306
  271MY     H4S10654   5.304   5.600   5.335
  271MY     C1310655   5.390   5.501   5.152
  271MY     H3R10656   5.310   5.549   5.095
  271MY     H3S10657   5.480   5.563   5.150
  271MY     C1210658   5.433   5.369   5.085
  271MY     H2R10659   5.527   5.326   5.122
  271MY     H2S10660   5.351   5.297   5.093
  272PC     C1110661   5.439   5.400   4.939
  272PC     O1210662   5.357   5.372   4.857
  272PC     O1110663   5.552   5.462   4.914
  272PC      C110664   5.590   5.485   4.773
  272PC      HR10665   5.697   5.509   4.764
  272PC      HS10666   5.579   5.393   4.715
  272PC      C210667   5.507   5.603   4.719
  272PC      HX10668   5.404   5.566   4.714
  272PC      C310669   5.545   5.653   4.574
  272PC      HA10670   5.509   5.580   4.500
  272PC      HB10671   5.507   5.754   4.554
  272PC     O3110672   5.693   5.671   4.559
  272PC     P3110673   5.772   5.582   4.451
  272PC     O3210674   5.744   5.665   4.312
  272PC     C3110675   5.846   5.744   4.255
  272PC     H1A10676   5.808   5.805   4.173
  272PC     H1B10677   5.879   5.814   4.333
  272PC     C3210678   5.961   5.666   4.210
  272PC     H2A10679   6.028   5.641   4.293
  272PC     H2B10680   5.937   5.565   4.176
  272PC     N3110681   6.052   5.725   4.109
  272PC     C3310682   5.980   5.789   3.992
  272PC     H3A10683   6.055   5.845   3.935
  272PC     H3B10684   5.921   5.863   4.047
  272PC     H3C10685   5.944   5.716   3.919
  272PC     C3410686   6.136   5.619   4.053
  272PC     H4A10687   6.223   5.603   4.117
  272PC     H4B10688   6.180   5.640   3.955
  272PC     H4C10689   6.083   5.525   4.040
  272PC     C3510690   6.138   5.826   4.181
  272PC     H5A10691   6.066   5.904   4.210
  272PC     H5B10692   6.207   5.874   4.111
  272PC     H5C10693   6.187   5.795   4.273
  272PC     O3310694   5.915   5.586   4.484
  272PC     O3410695   5.705   5.451   4.433
  272PC     O2110696   5.514   5.723   4.803
  272PC     C2110697   5.410   5.748   4.889
  272PC     O2210698   5.306   5.686   4.897
  273MY    H14T10699   5.924   6.173   5.960
  273MY    C11410700   5.965   6.077   5.926
  273MY    H14R10701   6.040   6.103   5.851
  273MY    H14S10702   6.021   6.030   6.007
  273MY    C11310703   5.871   5.973   5.861
  273MY    H13R10704   5.818   5.933   5.948
  273MY    H13S10705   5.809   6.030   5.792
  273MY    C11210706   5.952   5.856   5.796
  273MY    H12R10707   5.992   5.882   5.698
  273MY    H12S10708   6.032   5.829   5.865
  273MY    C11110709   5.860   5.739   5.779
  273MY    H11R10710   5.913   5.673   5.711
  273MY    H11S10711   5.846   5.696   5.878
  273MY    C11010712   5.719   5.768   5.733
  273MY    H10R10713   5.661   5.676   5.736
  273MY    H10S10714   5.674   5.831   5.811
  273MY     C1910715   5.707   5.848   5.591
  273MY     H9R10716   5.714   5.956   5.602
  273MY     H9S10717   5.775   5.804   5.518
  273MY     C1810718   5.558   5.809   5.545
  273MY     H8R10719   5.551   5.711   5.497
  273MY     H8S10720   5.491   5.814   5.631
  273MY     C1710721   5.500   5.906   5.450
  273MY     H7R10722   5.396   5.882   5.428
  273MY     H7S10723   5.491   6.009   5.486
  273MY     C1610724   5.583   5.913   5.319
  273MY     H6R10725   5.683   5.942   5.354
  273MY     H6S10726   5.578   5.814   5.272
  273MY     C1510727   5.547   6.019   5.217
  273MY     H5R10728   5.571   6.116   5.261
  273MY     H5S10729   5.609   6.018   5.127
  273MY     C1410730   5.390   6.014   5.179
  273MY     H4R10731   5.332   6.018   5.271
  273MY     H4S10732   5.362   6.091   5.106
  273MY     C1310733   5.360   5.885   5.104
  273MY     H3R10734   5.388   5.801   5.168
  273MY     H3S10735   5.252   5.871   5.099
  273MY     C1210736   5.423   5.881   4.962
  273MY     H2R10737   5.384   5.954   4.891
  273MY     H2S10738   5.530   5.901   4.965
  274MY    H14T10739   1.439   5.394   5.965
  274MY    C11410740   1.445   5.487   6.022
  274MY    H14R10741   1.388   5.465   6.112
  274MY    H14S10742   1.552   5.507   6.034
  274MY    C11310743   1.380   5.600   5.935
  274MY    H13R10744   1.450   5.639   5.861
  274MY    H13S10745   1.301   5.554   5.875
  274MY    C11210746   1.333   5.721   6.023
  274MY    H12R10747   1.263   5.673   6.092
  274MY    H12S10748   1.426   5.753   6.072
  274MY    C11110749   1.266   5.830   5.945
  274MY    H11R10750   1.167   5.789   5.922
  274MY    H11S10751   1.260   5.915   6.013
  274MY    C11010752   1.346   5.864   5.821
  274MY    H10R10753   1.454   5.863   5.840
  274MY    H10S10754   1.316   5.797   5.741
  274MY     C1910755   1.325   6.011   5.771
  274MY     H9R10756   1.220   6.039   5.755
  274MY     H9S10757   1.350   6.088   5.844
  274MY     C1810758   1.420   6.041   5.650
  274MY     H8R10759   1.523   6.048   5.684
  274MY     H8S10760   1.397   5.970   5.570
  274MY     C1710761   1.380   6.177   5.595
  274MY     H7R10762   1.340   6.234   5.679
  274MY     H7S10763   1.456   6.245   5.558
  274MY     C1610764   1.260   6.167   5.494
  274MY     H6R10765   1.176   6.121   5.546
  274MY     H6S10766   1.227   6.268   5.469
  274MY     C1510767   1.304   6.121   5.360
  274MY     H5R10768   1.389   6.179   5.323
  274MY     H5S10769   1.332   6.016   5.371
  274MY     C1410770   1.191   6.133   5.253
  274MY     H4R10771   1.160   6.238   5.253
  274MY     H4S10772   1.236   6.112   5.156
  274MY     C1310773   1.065   6.055   5.273
  274MY     H3R10774   1.090   5.962   5.323
  274MY     H3S10775   1.012   6.116   5.347
  274MY     C1210776   0.987   6.043   5.134
  274MY     H2R10777   0.962   6.135   5.081
  274MY     H2S10778   1.046   5.987   5.061
  275PC     C1110779   0.854   5.979   5.141
  275PC     O1210780   0.771   6.002   5.226
  275PC     O1110781   0.838   5.887   5.041
  275PC      C110782   0.704   5.851   5.000
  275PC      HR10783   0.714   5.746   4.970
  275PC      HS10784   0.636   5.855   5.085
  275PC      C210785   0.656   5.945   4.887
  275PC      HX10786   0.566   5.901   4.842
  275PC      C310787   0.761   5.953   4.774
  275PC      HA10788   0.849   6.007   4.809
  275PC      HB10789   0.767   5.848   4.745
  275PC     O3110790   0.711   6.022   4.660
  275PC     P3110791   0.804   6.086   4.542
  275PC     O3210792   0.899   6.188   4.630
  275PC     C3110793   0.836   6.304   4.688
  275PC     H1A10794   0.727   6.292   4.687
  275PC     H1B10795   0.867   6.314   4.792
  275PC     C3210796   0.879   6.425   4.608
  275PC     H2A10797   0.864   6.392   4.505
  275PC     H2B10798   0.815   6.512   4.622
  275PC     N3110799   1.023   6.477   4.614
  275PC     C3310800   1.122   6.361   4.588
  275PC     H3A10801   1.225   6.398   4.582
  275PC     H3B10802   1.116   6.316   4.489
  275PC     H3C10803   1.106   6.284   4.663
  275PC     C3410804   1.048   6.526   4.755
  275PC     H4A10805   0.971   6.601   4.776
  275PC     H4B10806   1.150   6.563   4.760
  275PC     H4C10807   1.043   6.441   4.823
  275PC     C3510808   1.038   6.589   4.515
  275PC     H5A10809   0.976   6.667   4.562
  275PC     H5B10810   0.986   6.561   4.423
  275PC     H5C10811   1.143   6.614   4.507
  275PC     O3310812   0.887   5.973   4.490
  275PC     O3410813   0.721   6.161   4.445
  275PC     O2110814   0.625   6.083   4.936
  275PC     C2110815   0.535   6.105   5.033
  275PC     O2210816   0.461   6.021   5.085
  276MY    H14T10817   1.368   6.425   6.156
  276MY    C11410818   1.270   6.416   6.108
  276MY    H14R10819   1.219   6.323   6.133
  276MY    H14S10820   1.213   6.500   6.148
  276MY    C11310821   1.265   6.430   5.959
  276MY    H13R10822   1.318   6.522   5.932
  276MY    H13S10823   1.311   6.346   5.908
  276MY    C11210824   1.120   6.436   5.889
  276MY    H12R10825   1.063   6.349   5.922
  276MY    H12S10826   1.069   6.527   5.922
  276MY    C11110827   1.144   6.424   5.743
  276MY    H11R10828   1.218   6.496   5.708
  276MY    H11S10829   1.184   6.324   5.729
  276MY    C11010830   1.011   6.441   5.670
  276MY    H10R10831   0.976   6.339   5.652
  276MY    H10S10832   0.939   6.494   5.732
  276MY     C1910833   1.022   6.506   5.532
  276MY     H9R10834   1.039   6.613   5.540
  276MY     H9S10835   1.104   6.463   5.475
  276MY     C1810836   0.890   6.491   5.447
  276MY     H8R10837   0.901   6.547   5.353
  276MY     H8S10838   0.875   6.387   5.415
  276MY     C1710839   0.763   6.547   5.514
  276MY     H7R10840   0.740   6.476   5.593
  276MY     H7S10841   0.793   6.649   5.540
  276MY     C1610842   0.648   6.547   5.411
  276MY     H6R10843   0.561   6.594   5.457
  276MY     H6S10844   0.672   6.621   5.334
  276MY     C1510845   0.606   6.416   5.345
  276MY     H5R10846   0.686   6.365   5.292
  276MY     H5S10847   0.563   6.351   5.422
  276MY     C1410848   0.485   6.434   5.243
  276MY     H4R10849   0.401   6.465   5.305
  276MY     H4S10850   0.512   6.517   5.177
  276MY     C1310851   0.449   6.299   5.177
  276MY     H3R10852   0.455   6.221   5.253
  276MY     H3S10853   0.344   6.310   5.147
  276MY     C1210854   0.533   6.254   5.058
  276MY     H2R10855   0.494   6.300   4.967
  276MY     H2S10856   0.635   6.290   5.070
  277MY    H14T10857   1.588   2.136   6.119
  277MY    C11410858   1.553   2.228   6.070
  277MY    H14R10859   1.635   2.300   6.067
  277MY    H14S10860   1.515   2.206   5.970
  277MY    C11310861   1.440   2.297   6.148
  277MY    H13R10862   1.354   2.229   6.145
  277MY    H13S10863   1.476   2.309   6.251
  277MY    C11210864   1.389   2.426   6.078
  277MY    H12R10865   1.342   2.390   5.986
  277MY    H12S10866   1.315   2.473   6.144
  277MY    C11110867   1.492   2.536   6.041
  277MY    H11R10868   1.557   2.558   6.126
  277MY    H11S10869   1.557   2.490   5.966
  277MY    C11010870   1.430   2.668   5.978
  277MY    H10R10871   1.386   2.709   6.069
  277MY    H10S10872   1.510   2.729   5.936
  277MY     C1910873   1.316   2.647   5.873
  277MY     H9R10874   1.234   2.595   5.923
  277MY     H9S10875   1.275   2.745   5.850
  277MY     C1810876   1.364   2.575   5.742
  277MY     H8R10877   1.428   2.647   5.691
  277MY     H8S10878   1.416   2.480   5.758
  277MY     C1710879   1.240   2.550   5.652
  277MY     H7R10880   1.177   2.479   5.705
  277MY     H7S10881   1.173   2.635   5.634
  277MY     C1610882   1.288   2.501   5.510
  277MY     H6R10883   1.330   2.587   5.458
  277MY     H6S10884   1.360   2.420   5.527
  277MY     C1510885   1.174   2.434   5.422
  277MY     H5R10886   1.129   2.355   5.484
  277MY     H5S10887   1.100   2.513   5.404
  277MY     C1410888   1.241   2.398   5.291
  277MY     H4R10889   1.273   2.481   5.229
  277MY     H4S10890   1.326   2.332   5.314
  277MY     C1310891   1.145   2.326   5.189
  277MY     H3R10892   1.079   2.408   5.156
  277MY     H3S10893   1.204   2.311   5.099
  277MY     C1210894   1.065   2.204   5.222
  277MY     H2R10895   1.132   2.137   5.277
  277MY     H2S10896   0.979   2.228   5.285
  278PC     C1110897   1.007   2.127   5.102
  278PC     O1210898   0.958   2.179   5.005
  278PC     O1110899   1.011   1.992   5.120
  278PC      C110900   0.984   1.901   5.012
  278PC      HR10901   0.948   1.807   5.055
  278PC      HS10902   0.899   1.940   4.955
  278PC      C210903   1.117   1.891   4.932
  278PC      HX10904   1.136   1.987   4.883
  278PC      C310905   1.095   1.784   4.817
  278PC      HA10906   1.179   1.748   4.757
  278PC      HB10907   1.058   1.697   4.872
  278PC     O3110908   0.991   1.835   4.732
  278PC     P3110909   1.019   1.912   4.596
  278PC     O3210910   1.071   2.058   4.645
  278PC     C3110911   0.978   2.168   4.663
  278PC     H1A10912   0.882   2.130   4.699
  278PC     H1B10913   1.013   2.235   4.742
  278PC     C3210914   0.964   2.236   4.532
  278PC     H2A10915   1.037   2.316   4.520
  278PC     H2B10916   0.965   2.167   4.448
  278PC     N3110917   0.834   2.311   4.508
  278PC     C3310918   0.711   2.225   4.525
  278PC     H3A10919   0.729   2.182   4.623
  278PC     H3B10920   0.711   2.144   4.453
  278PC     H3C10921   0.623   2.287   4.508
  278PC     C3410922   0.843   2.382   4.378
  278PC     H4A10923   0.859   2.308   4.299
  278PC     H4B10924   0.921   2.458   4.389
  278PC     H4C10925   0.750   2.435   4.355
  278PC     C3510926   0.832   2.431   4.605
  278PC     H5A10927   0.752   2.502   4.585
  278PC     H5B10928   0.928   2.480   4.587
  278PC     H5C10929   0.834   2.383   4.703
  278PC     O3310930   1.133   1.851   4.535
  278PC     O3410931   0.894   1.933   4.515
  278PC     O2110932   1.227   1.834   5.015
  278PC     C2110933   1.322   1.917   5.061
  278PC     O2210934   1.321   2.036   5.046
  279MY    H14T10935   0.773   1.979   5.880
  279MY    C11410936   0.719   2.012   5.969
  279MY    H14R10937   0.616   2.035   5.941
  279MY    H14S10938   0.723   1.924   6.034
  279MY    C11310939   0.780   2.132   6.046
  279MY    H13R10940   0.792   2.215   5.977
  279MY    H13S10941   0.712   2.158   6.127
  279MY    C11210942   0.912   2.100   6.119
  279MY    H12R10943   0.952   2.178   6.184
  279MY    H12S10944   0.892   2.020   6.190
  279MY    C11110945   1.027   2.064   6.023
  279MY    H11R10946   1.113   2.012   6.067
  279MY    H11S10947   0.982   1.992   5.955
  279MY    C11010948   1.083   2.176   5.936
  279MY    H10R10949   1.000   2.225   5.885
  279MY    H10S10950   1.118   2.249   6.010
  279MY     C1910951   1.195   2.114   5.848
  279MY     H9R10952   1.277   2.074   5.909
  279MY     H9S10953   1.146   2.032   5.795
  279MY     C1810954   1.264   2.217   5.759
  279MY     H8R10955   1.186   2.258   5.694
  279MY     H8S10956   1.304   2.299   5.818
  279MY     C1710957   1.387   2.163   5.681
  279MY     H7R10958   1.456   2.241   5.648
  279MY     H7S10959   1.458   2.110   5.745
  279MY     C1610960   1.353   2.061   5.567
  279MY     H6R10961   1.312   1.969   5.611
  279MY     H6S10962   1.268   2.099   5.509
  279MY     C1510963   1.475   2.021   5.481
  279MY     H5R10964   1.529   2.109   5.445
  279MY     H5S10965   1.551   1.960   5.531
  279MY     C1410966   1.419   1.951   5.361
  279MY     H4R10967   1.347   1.871   5.384
  279MY     H4S10968   1.349   2.022   5.317
  279MY     C1310969   1.504   1.909   5.236
  279MY     H3R10970   1.551   2.003   5.204
  279MY     H3S10971   1.588   1.846   5.268
  279MY     C1210972   1.432   1.840   5.118
  279MY     H2R10973   1.501   1.825   5.034
  279MY     H2S10974   1.398   1.742   5.151
  280MY    H14T10975   0.901   2.775   6.358
  280MY    C11410976   0.986   2.733   6.412
  280MY    H14R10977   1.077   2.779   6.372
  280MY    H14S10978   0.978   2.758   6.518
  280MY    C11310979   0.986   2.583   6.395
  280MY    H13R10980   1.069   2.545   6.455
  280MY    H13S10981   0.897   2.523   6.417
  280MY    C11210982   1.011   2.535   6.250
  280MY    H12R10983   1.099   2.587   6.212
  280MY    H12S10984   1.038   2.430   6.255
  280MY    C11110985   0.900   2.561   6.148
  280MY    H11R10986   0.810   2.508   6.179
  280MY    H11S10987   0.869   2.665   6.139
  280MY    C11010988   0.936   2.525   6.009
  280MY    H10R10989   0.998   2.606   5.970
  280MY    H10S10990   0.991   2.431   6.013
  280MY     C1910991   0.810   2.515   5.927
  280MY     H9R10992   0.755   2.431   5.971
  280MY     H9S10993   0.745   2.602   5.940
  280MY     C1810994   0.848   2.496   5.781
  280MY     H8R10995   0.884   2.594   5.749
  280MY     H8S10996   0.919   2.413   5.770
  280MY     C1710997   0.726   2.459   5.692
  280MY     H7R10998   0.683   2.362   5.717
  280MY     H7S10999   0.647   2.535   5.695
  280MY     C1611000   0.768   2.458   5.542
  280MY     H6R11001   0.791   2.561   5.514
  280MY     H6S11002   0.864   2.407   5.536
  280MY     C1511003   0.664   2.400   5.448
  280MY     H5R11004   0.652   2.297   5.482
  280MY     H5S11005   0.574   2.461   5.459
  280MY     C1411006   0.692   2.404   5.300
  280MY     H4R11007   0.760   2.321   5.280
  280MY     H4S11008   0.598   2.388   5.245
  280MY     C1311009   0.759   2.519   5.236
  280MY     H3R11010   0.714   2.615   5.264
  280MY     H3S11011   0.865   2.523   5.264
  280MY     C1211012   0.752   2.505   5.082
  280MY     H2R11013   0.810   2.422   5.042
  280MY     H2S11014   0.647   2.499   5.052
  281PC     C1111015   0.809   2.636   5.022
  281PC     O1211016   0.815   2.742   5.083
  281PC     O1111017   0.855   2.615   4.893
  281PC      C111018   0.941   2.711   4.831
  281PC      HR11019   0.942   2.667   4.732
  281PC      HS11020   0.922   2.817   4.852
  281PC      C211021   1.083   2.674   4.867
  281PC      HX11022   1.150   2.744   4.817
  281PC      C311023   1.123   2.525   4.841
  281PC      HA11024   1.221   2.503   4.885
  281PC      HB11025   1.065   2.455   4.902
  281PC     O3111026   1.121   2.490   4.703
  281PC     P3111027   1.238   2.516   4.598
  281PC     O3211028   1.357   2.412   4.630
  281PC     C3111029   1.359   2.275   4.573
  281PC     H1A11030   1.386   2.204   4.651
  281PC     H1B11031   1.259   2.244   4.543
  281PC     C3211032   1.448   2.288   4.444
  281PC     H2A11033   1.410   2.350   4.362
  281PC     H2B11034   1.545   2.326   4.476
  281PC     N3111035   1.492   2.156   4.376
  281PC     C3311036   1.577   2.077   4.469
  281PC     H3A11037   1.623   1.992   4.419
  281PC     H3B11038   1.507   2.033   4.540
  281PC     H3C11039   1.646   2.151   4.511
  281PC     C3411040   1.576   2.195   4.256
  281PC     H4A11041   1.603   2.116   4.185
  281PC     H4B11042   1.672   2.223   4.298
  281PC     H4C11043   1.525   2.281   4.211
  281PC     C3511044   1.387   2.073   4.327
  281PC     H5A11045   1.318   2.146   4.286
  281PC     H5B11046   1.342   2.010   4.404
  281PC     H5C11047   1.430   2.001   4.257
  281PC     O3311048   1.177   2.480   4.471
  281PC     O3411049   1.292   2.647   4.619
  281PC     O2111050   1.102   2.697   5.002
  281PC     C2111051   1.129   2.827   5.036
  281PC     O2211052   1.137   2.920   4.956
  282MY    H14T11053   1.678   3.776   5.895
  282MY    C11411054   1.719   3.695   5.955
  282MY    H14R11055   1.828   3.680   5.954
  282MY    H14S11056   1.695   3.702   6.061
  282MY    C11311057   1.657   3.563   5.910
  282MY    H13R11058   1.719   3.507   5.840
  282MY    H13S11059   1.649   3.506   6.003
  282MY    C11211060   1.518   3.578   5.850
  282MY    H12R11061   1.459   3.663   5.883
  282MY    H12S11062   1.518   3.583   5.741
  282MY    C11111063   1.445   3.449   5.884
  282MY    H11R11064   1.446   3.421   5.989
  282MY    H11S11065   1.338   3.464   5.863
  282MY    C11011066   1.502   3.326   5.813
  282MY    H10R11067   1.493   3.346   5.706
  282MY    H10S11068   1.603   3.316   5.854
  282MY     C1911069   1.425   3.199   5.855
  282MY     H9R11070   1.408   3.218   5.961
  282MY     H9S11071   1.335   3.198   5.793
  282MY     C1811072   1.507   3.071   5.827
  282MY     H8R11073   1.613   3.080   5.848
  282MY     H8S11074   1.476   2.990   5.893
  282MY     C1711075   1.508   3.023   5.684
  282MY     H7R11076   1.547   3.103   5.621
  282MY     H7S11077   1.569   2.932   5.676
  282MY     C1611078   1.368   2.981   5.626
  282MY     H6R11079   1.324   2.899   5.683
  282MY     H6S11080   1.297   3.063   5.639
  282MY     C1511081   1.380   2.935   5.480
  282MY     H5R11082   1.433   3.005   5.415
  282MY     H5S11083   1.445   2.847   5.473
  282MY     C1411084   1.250   2.902   5.414
  282MY     H4R11085   1.201   2.821   5.469
  282MY     H4S11086   1.183   2.987   5.425
  282MY     C1311087   1.266   2.882   5.254
  282MY     H3R11088   1.319   2.968   5.212
  282MY     H3S11089   1.336   2.800   5.236
  282MY     C1211090   1.130   2.852   5.186
  282MY     H2R11091   1.079   2.773   5.241
  282MY     H2S11092   1.068   2.941   5.198
  283MY    H14T11093   4.734   4.772   5.840
  283MY    C11411094   4.664   4.748   5.760
  283MY    H14R11095   4.735   4.742   5.678
  283MY    H14S11096   4.619   4.649   5.761
  283MY    C11311097   4.555   4.860   5.730
  283MY    H13R11098   4.464   4.853   5.791
  283MY    H13S11099   4.596   4.959   5.749
  283MY    C11211100   4.508   4.859   5.584
  283MY    H12R11101   4.593   4.835   5.518
  283MY    H12S11102   4.441   4.773   5.584
  283MY    C11111103   4.428   4.983   5.538
  283MY    H11R11104   4.356   5.004   5.617
  283MY    H11S11105   4.488   5.074   5.547
  283MY    C11011106   4.360   4.966   5.403
  283MY    H10R11107   4.443   4.969   5.332
  283MY    H10S11108   4.309   4.870   5.395
  283MY     C1911109   4.256   5.076   5.368
  283MY     H9R11110   4.206   5.059   5.272
  283MY     H9S11111   4.182   5.060   5.446
  283MY     C1811112   4.314   5.223   5.374
  283MY     H8R11113   4.359   5.255   5.467
  283MY     H8S11114   4.385   5.244   5.294
  283MY     C1711115   4.202   5.328   5.350
  283MY     H7R11116   4.125   5.326   5.428
  283MY     H7S11117   4.248   5.427   5.353
  283MY     C1611118   4.128   5.309   5.217
  283MY     H6R11119   4.194   5.287   5.133
  283MY     H6S11120   4.066   5.219   5.215
  283MY     C1511121   4.044   5.431   5.172
  283MY     H5R11122   3.958   5.449   5.238
  283MY     H5S11123   4.099   5.525   5.174
  283MY     C1411124   3.994   5.407   5.025
  283MY     H4R11125   3.919   5.484   5.009
  283MY     H4S11126   4.078   5.405   4.956
  283MY     C1311127   3.919   5.274   5.003
  283MY     H3R11128   3.983   5.188   4.980
  283MY     H3S11129   3.860   5.249   5.091
  283MY     C1211130   3.809   5.284   4.898
  283MY     H2R11131   3.745   5.195   4.899
  283MY     H2S11132   3.744   5.370   4.916
  284PC     C1111133   3.852   5.302   4.754
  284PC     O1211134   3.832   5.401   4.696
  284PC     O1111135   3.904   5.189   4.709
  284PC      C111136   3.944   5.174   4.575
  284PC      HR11137   3.930   5.070   4.546
  284PC      HS11138   3.890   5.244   4.510
  284PC      C211139   4.085   5.222   4.544
  284PC      HX11140   4.095   5.327   4.573
  284PC      C311141   4.110   5.219   4.393
  284PC      HA11142   4.076   5.316   4.355
  284PC      HB11143   4.217   5.228   4.374
  284PC     O3111144   4.052   5.109   4.320
  284PC     P3111145   4.075   5.084   4.170
  284PC     O3211146   3.943   5.126   4.108
  284PC     C3111147   3.905   5.266   4.083
  284PC     H1A11148   3.940   5.327   4.167
  284PC     H1B11149   3.949   5.301   3.990
  284PC     C3211150   3.756   5.269   4.086
  284PC     H2A11151   3.709   5.197   4.020
  284PC     H2B11152   3.727   5.256   4.191
  284PC     N3111153   3.690   5.397   4.050
  284PC     C3311154   3.559   5.397   4.109
  284PC     H3A11155   3.506   5.481   4.065
  284PC     H3B11156   3.565   5.418   4.216
  284PC     H3C11157   3.508   5.302   4.093
  284PC     C3411158   3.684   5.411   3.899
  284PC     H4A11159   3.782   5.414   3.852
  284PC     H4B11160   3.620   5.498   3.883
  284PC     H4C11161   3.637   5.318   3.865
  284PC     C3511162   3.771   5.514   4.103
  284PC     H5A11163   3.770   5.514   4.212
  284PC     H5B11164   3.720   5.608   4.080
  284PC     H5C11165   3.875   5.505   4.072
  284PC     O3311166   4.177   5.175   4.121
  284PC     O3411167   4.099   4.944   4.143
  284PC     O2111168   4.187   5.143   4.607
  284PC     C2111169   4.243   5.186   4.720
  284PC     O2211170   4.192   5.276   4.790
  285MY    H14T11171   4.966   4.293   5.756
  285MY    C11411172   4.860   4.298   5.733
  285MY    H14R11173   4.819   4.197   5.740
  285MY    H14S11174   4.802   4.361   5.802
  285MY    C11311175   4.822   4.355   5.589
  285MY    H13R11176   4.853   4.458   5.573
  285MY    H13S11177   4.855   4.291   5.507
  285MY    C11211178   4.664   4.357   5.576
  285MY    H12R11179   4.629   4.255   5.593
  285MY    H12S11180   4.617   4.431   5.641
  285MY    C11111181   4.621   4.395   5.430
  285MY    H11R11182   4.692   4.338   5.370
  285MY    H11S11183   4.524   4.352   5.404
  285MY    C11011184   4.614   4.544   5.402
  285MY    H10R11185   4.517   4.577   5.439
  285MY    H10S11186   4.687   4.604   5.457
  285MY     C1911187   4.635   4.578   5.257
  285MY     H9R11188   4.729   4.529   5.232
  285MY     H9S11189   4.558   4.528   5.198
  285MY     C1811190   4.640   4.725   5.209
  285MY     H8R11191   4.554   4.779   5.248
  285MY     H8S11192   4.720   4.777   5.260
  285MY     C1711193   4.663   4.741   5.058
  285MY     H7R11194   4.754   4.688   5.029
  285MY     H7S11195   4.582   4.700   4.997
  285MY     C1611196   4.662   4.895   5.024
  285MY     H6R11197   4.697   4.956   5.109
  285MY     H6S11198   4.739   4.916   4.950
  285MY     C1511199   4.530   4.953   4.982
  285MY     H5R11200   4.500   4.904   4.889
  285MY     H5S11201   4.454   4.941   5.061
  285MY     C1411202   4.546   5.096   4.949
  285MY     H4R11203   4.580   5.148   5.039
  285MY     H4S11204   4.615   5.103   4.865
  285MY     C1311205   4.423   5.173   4.898
  285MY     H3R11206   4.346   5.166   4.976
  285MY     H3S11207   4.447   5.278   4.884
  285MY     C1211208   4.360   5.106   4.767
  285MY     H2R11209   4.426   5.109   4.680
  285MY     H2S11210   4.330   5.002   4.773
  286MY    H14T11211   0.631   2.662   6.388
  286MY    C11411212   0.526   2.690   6.373
  286MY    H14R11213   0.506   2.640   6.278
  286MY    H14S11214   0.469   2.648   6.456
  286MY    C11311215   0.516   2.843   6.355
  286MY    H13R11216   0.416   2.867   6.317
  286MY    H13S11217   0.531   2.891   6.453
  286MY    C11211218   0.619   2.900   6.258
  286MY    H12R11219   0.593   3.005   6.240
  286MY    H12S11220   0.720   2.899   6.299
  286MY    C11111221   0.626   2.836   6.121
  286MY    H11R11222   0.690   2.899   6.058
  286MY    H11S11223   0.680   2.742   6.121
  286MY    C11011224   0.490   2.817   6.054
  286MY    H10R11225   0.432   2.736   6.099
  286MY    H10S11226   0.436   2.912   6.057
  286MY     C1911227   0.491   2.788   5.907
  286MY     H9R11228   0.540   2.867   5.850
  286MY     H9S11229   0.537   2.692   5.885
  286MY     C1811230   0.357   2.785   5.831
  286MY     H8R11231   0.284   2.738   5.897
  286MY     H8S11232   0.321   2.887   5.815
  286MY     C1711233   0.353   2.731   5.687
  286MY     H7R11234   0.378   2.625   5.678
  286MY     H7S11235   0.249   2.748   5.658
  286MY     C1611236   0.434   2.810   5.583
  286MY     H6R11237   0.395   2.912   5.580
  286MY     H6S11238   0.534   2.820   5.624
  286MY     C1511239   0.427   2.753   5.441
  286MY     H5R11240   0.466   2.650   5.439
  286MY     H5S11241   0.321   2.741   5.419
  286MY     C1411242   0.498   2.836   5.330
  286MY     H4R11243   0.466   2.939   5.345
  286MY     H4S11244   0.604   2.832   5.355
  286MY     C1311245   0.480   2.776   5.187
  286MY     H3R11246   0.533   2.681   5.191
  286MY     H3S11247   0.377   2.745   5.172
  286MY     C1211248   0.520   2.866   5.071
  286MY     H2R11249   0.468   2.963   5.073
  286MY     H2S11250   0.620   2.906   5.088
  287PC     C1111251   0.520   2.797   4.939
  287PC     O1211252   0.450   2.702   4.912
  287PC     O1111253   0.611   2.846   4.850
  287PC      C111254   0.611   2.801   4.711
  287PC      HR11255   0.715   2.804   4.676
  287PC      HS11256   0.576   2.698   4.697
  287PC      C211257   0.513   2.884   4.616
  287PC      HX11258   0.533   2.830   4.523
  287PC      C311259   0.565   3.024   4.600
  287PC      HA11260   0.488   3.090   4.559
  287PC      HB11261   0.592   3.057   4.701
  287PC     O3111262   0.683   3.011   4.518
  287PC     P3111263   0.681   3.021   4.353
  287PC     O3211264   0.700   3.179   4.330
  287PC     C3111265   0.604   3.275   4.288
  287PC     H1A11266   0.550   3.224   4.209
  287PC     H1B11267   0.539   3.312   4.368
  287PC     C3211268   0.684   3.384   4.219
  287PC     H2A11269   0.733   3.443   4.296
  287PC     H2B11270   0.755   3.340   4.149
  287PC     N3111271   0.617   3.482   4.128
  287PC     C3311272   0.530   3.409   4.031
  287PC     H3A11273   0.591   3.340   3.974
  287PC     H3B11274   0.484   3.480   3.962
  287PC     H3C11275   0.456   3.354   4.090
  287PC     C3411276   0.722   3.547   4.044
  287PC     H4A11277   0.674   3.617   3.974
  287PC     H4B11278   0.771   3.469   3.987
  287PC     H4C11279   0.793   3.603   4.105
  287PC     C3511280   0.539   3.586   4.198
  287PC     H5A11281   0.459   3.546   4.260
  287PC     H5B11282   0.494   3.643   4.116
  287PC     H5C11283   0.606   3.650   4.255
  287PC     O3311284   0.802   2.948   4.304
  287PC     O3411285   0.548   2.977   4.301
  287PC     O2111286   0.377   2.880   4.672
  287PC     C2111287   0.299   2.774   4.655
  287PC     O2211288   0.336   2.682   4.580
  288MY    H14T11289  -0.004   2.402   5.891
  288MY    C11411290  -0.033   2.365   5.793
  288MY    H14R11291  -0.028   2.256   5.789
  288MY    H14S11292  -0.137   2.395   5.780
  288MY    C11311293   0.053   2.417   5.678
  288MY    H13R11294   0.050   2.526   5.667
  288MY    H13S11295   0.158   2.401   5.703
  288MY    C11211296   0.005   2.358   5.536
  288MY    H12R11297   0.080   2.375   5.458
  288MY    H12S11298  -0.008   2.250   5.544
  288MY    C11111299  -0.135   2.412   5.492
  288MY    H11R11300  -0.212   2.393   5.567
  288MY    H11S11301  -0.115   2.517   5.474
  288MY    C11011302  -0.187   2.346   5.363
  288MY    H10R11303  -0.212   2.243   5.387
  288MY    H10S11304  -0.281   2.394   5.335
  288MY     C1911305  -0.100   2.343   5.231
  288MY     H9R11306  -0.030   2.260   5.244
  288MY     H9S11307  -0.162   2.313   5.146
  288MY     C1811308  -0.018   2.467   5.198
  288MY     H8R11309   0.053   2.490   5.278
  288MY     H8S11310   0.030   2.440   5.103
  288MY     C1711311  -0.112   2.595   5.175
  288MY     H7R11312  -0.162   2.582   5.079
  288MY     H7S11313  -0.184   2.620   5.253
  288MY     C1611314  -0.034   2.721   5.141
  288MY     H6R11315  -0.098   2.808   5.125
  288MY     H6S11316   0.025   2.746   5.229
  288MY     C1511317   0.063   2.704   5.022
  288MY     H5R11318   0.107   2.803   5.009
  288MY     H5S11319   0.153   2.647   5.047
  288MY     C1411320   0.011   2.652   4.888
  288MY     H4R11321  -0.048   2.561   4.901
  288MY     H4S11322  -0.068   2.721   4.859
  288MY     C1311323   0.104   2.647   4.767
  288MY     H3R11324   0.173   2.565   4.787
  288MY     H3S11325   0.052   2.619   4.675
  288MY     C1211326   0.173   2.781   4.738
  288MY     H2R11327   0.101   2.852   4.696
  288MY     H2S11328   0.213   2.834   4.825
  289MY    H14T11329   3.630   1.971   6.267
  289MY    C11411330   3.723   2.026   6.248
  289MY    H14R11331   3.699   2.128   6.215
  289MY    H14S11332   3.765   2.042   6.348
  289MY    C11311333   3.825   1.957   6.156
  289MY    H13R11334   3.895   2.035   6.127
  289MY    H13S11335   3.864   1.877   6.219
  289MY    C11211336   3.759   1.898   6.029
  289MY    H12R11337   3.839   1.839   5.985
  289MY    H12S11338   3.680   1.829   6.058
  289MY    C11111339   3.719   1.998   5.919
  289MY    H11R11340   3.662   2.080   5.964
  289MY    H11S11341   3.808   2.049   5.882
  289MY    C11011342   3.638   1.937   5.800
  289MY    H10R11343   3.543   1.897   5.836
  289MY    H10S11344   3.616   2.017   5.729
  289MY     C1911345   3.717   1.837   5.712
  289MY     H9R11346   3.807   1.880   5.666
  289MY     H9S11347   3.756   1.760   5.780
  289MY     C1811348   3.629   1.766   5.601
  289MY     H8R11349   3.547   1.720   5.655
  289MY     H8S11350   3.578   1.842   5.541
  289MY     C1711351   3.698   1.671   5.503
  289MY     H7R11352   3.781   1.727   5.458
  289MY     H7S11353   3.741   1.580   5.546
  289MY     C1611354   3.608   1.625   5.393
  289MY     H6R11355   3.525   1.578   5.446
  289MY     H6S11356   3.586   1.709   5.328
  289MY     C1511357   3.676   1.509   5.320
  289MY     H5R11358   3.765   1.545   5.268
  289MY     H5S11359   3.695   1.430   5.392
  289MY     C1411360   3.596   1.446   5.211
  289MY     H4R11361   3.664   1.378   5.159
  289MY     H4S11362   3.513   1.396   5.260
  289MY     C1311363   3.535   1.546   5.115
  289MY     H3R11364   3.471   1.616   5.169
  289MY     H3S11365   3.608   1.597   5.053
  289MY     C1211366   3.437   1.483   5.019
  289MY     H2R11367   3.486   1.401   4.966
  289MY     H2S11368   3.358   1.442   5.083
  290PC     C1111369   3.384   1.580   4.914
  290PC     O1211370   3.408   1.697   4.904
  290PC     O1111371   3.298   1.514   4.833
  290PC      C111372   3.225   1.587   4.731
  290PC      HR11373   3.164   1.662   4.782
  290PC      HS11374   3.289   1.648   4.668
  290PC      C211375   3.139   1.495   4.644
  290PC      HX11376   3.211   1.439   4.584
  290PC      C311377   3.046   1.574   4.550
  290PC      HA11378   2.993   1.500   4.489
  290PC      HB11379   2.968   1.628   4.604
  290PC     O3111380   3.119   1.662   4.463
  290PC     P3111381   3.215   1.622   4.345
  290PC     O3211382   3.352   1.671   4.406
  290PC     C3111383   3.371   1.816   4.407
  290PC     H1A11384   3.355   1.852   4.304
  290PC     H1B11385   3.293   1.853   4.474
  290PC     C3211386   3.513   1.856   4.454
  290PC     H2A11387   3.523   1.961   4.481
  290PC     H2B11388   3.538   1.792   4.539
  290PC     N3111389   3.615   1.839   4.345
  290PC     C3311390   3.619   1.705   4.286
  290PC     H3A11391   3.666   1.643   4.363
  290PC     H3B11392   3.686   1.704   4.200
  290PC     H3C11393   3.521   1.665   4.260
  290PC     C3411394   3.751   1.869   4.399
  290PC     H4A11395   3.744   1.801   4.483
  290PC     H4B11396   3.762   1.975   4.422
  290PC     H4C11397   3.828   1.843   4.326
  290PC     C3511398   3.590   1.931   4.229
  290PC     H5A11399   3.672   1.961   4.163
  290PC     H5B11400   3.551   2.025   4.269
  290PC     H5C11401   3.515   1.886   4.165
  290PC     O3311402   3.222   1.474   4.338
  290PC     O3411403   3.183   1.703   4.227
  290PC     O2111404   3.058   1.406   4.721
  290PC     C2111405   3.108   1.295   4.773
  290PC     O2211406   3.224   1.254   4.752
  291MY    H14T11407   2.741   0.747   6.234
  291MY    C11411408   2.728   0.658   6.172
  291MY    H14R11409   2.779   0.577   6.225
  291MY    H14S11410   2.624   0.629   6.157
  291MY    C11311411   2.797   0.689   6.037
  291MY    H13R11412   2.808   0.590   5.992
  291MY    H13S11413   2.734   0.750   5.972
  291MY    C11211414   2.930   0.769   6.053
  291MY    H12R11415   2.907   0.872   6.077
  291MY    H12S11416   2.990   0.731   6.136
  291MY    C11111417   3.009   0.768   5.921
  291MY    H11R11418   3.104   0.811   5.954
  291MY    H11S11419   3.011   0.664   5.889
  291MY    C11011420   2.947   0.866   5.816
  291MY    H10R11421   2.848   0.839   5.779
  291MY    H10S11422   2.941   0.962   5.868
  291MY     C1911423   3.038   0.879   5.691
  291MY     H9R11424   3.136   0.919   5.719
  291MY     H9S11425   3.060   0.781   5.649
  291MY     C1811426   2.966   0.955   5.582
  291MY     H8R11427   2.876   0.901   5.551
  291MY     H8S11428   2.926   1.048   5.624
  291MY     C1711429   3.050   0.978   5.463
  291MY     H7R11430   3.133   1.039   5.497
  291MY     H7S11431   3.086   0.885   5.418
  291MY     C1611432   2.969   1.058   5.349
  291MY     H6R11433   2.883   1.000   5.315
  291MY     H6S11434   2.932   1.152   5.391
  291MY     C1511435   3.058   1.086   5.229
  291MY     H5R11436   3.121   1.171   5.256
  291MY     H5S11437   3.114   0.998   5.199
  291MY     C1411438   2.985   1.126   5.095
  291MY     H4R11439   2.919   1.046   5.061
  291MY     H4S11440   2.908   1.202   5.112
  291MY     C1311441   3.075   1.164   4.979
  291MY     H3R11442   3.139   1.244   5.016
  291MY     H3S11443   3.154   1.094   4.953
  291MY     C1211444   3.006   1.224   4.859
  291MY     H2R11445   2.950   1.152   4.799
  291MY     H2S11446   2.940   1.306   4.888
  292MY    H14T11447   3.155   3.206   6.362
  292MY    C11411448   3.236   3.245   6.299
  292MY    H14R11449   3.257   3.344   6.341
  292MY    H14S11450   3.324   3.185   6.322
  292MY    C11311451   3.196   3.240   6.147
  292MY    H13R11452   3.225   3.333   6.099
  292MY    H13S11453   3.250   3.157   6.101
  292MY    C11211454   3.038   3.235   6.134
  292MY    H12R11455   2.980   3.191   6.216
  292MY    H12S11456   3.011   3.340   6.139
  292MY    C11111457   2.985   3.179   6.008
  292MY    H11R11458   2.876   3.179   6.007
  292MY    H11S11459   3.013   3.249   5.929
  292MY    C11011460   3.043   3.047   5.964
  292MY    H10R11461   3.152   3.048   5.956
  292MY    H10S11462   3.015   2.977   6.042
  292MY     C1911463   2.974   2.997   5.831
  292MY     H9R11464   2.994   2.890   5.823
  292MY     H9S11465   2.866   3.010   5.833
  292MY     C1811466   3.028   3.062   5.699
  292MY     H8R11467   3.009   3.168   5.716
  292MY     H8S11468   3.134   3.034   5.700
  292MY     C1711469   2.975   3.012   5.565
  292MY     H7R11470   2.995   3.073   5.477
  292MY     H7S11471   3.025   2.922   5.529
  292MY     C1611472   2.824   2.975   5.561
  292MY     H6R11473   2.792   2.917   5.475
  292MY     H6S11474   2.803   2.913   5.648
  292MY     C1511475   2.735   3.086   5.581
  292MY     H5R11476   2.636   3.040   5.584
  292MY     H5S11477   2.760   3.136   5.675
  292MY     C1411478   2.738   3.195   5.474
  292MY     H4R11479   2.651   3.259   5.488
  292MY     H4S11480   2.824   3.261   5.490
  292MY     C1311481   2.749   3.135   5.333
  292MY     H3R11482   2.772   3.225   5.275
  292MY     H3S11483   2.843   3.083   5.315
  292MY     C1211484   2.614   3.086   5.268
  292MY     H2R11485   2.576   3.003   5.327
  292MY     H2S11486   2.539   3.165   5.258
  293PC     C1111487   2.645   3.024   5.132
  293PC     O1211488   2.732   2.937   5.122
  293PC     O1111489   2.567   3.069   5.032
  293PC      C111490   2.569   2.979   4.918
  293PC      HR11491   2.526   3.028   4.831
  293PC      HS11492   2.663   2.947   4.871
  293PC      C211493   2.474   2.853   4.936
  293PC      HX11494   2.477   2.800   4.840
  293PC      C311495   2.329   2.900   4.966
  293PC      HA11496   2.265   2.812   4.971
  293PC      HB11497   2.317   2.951   5.061
  293PC     O3111498   2.285   3.002   4.869
  293PC     P3111499   2.239   2.966   4.727
  293PC     O3211500   2.082   2.960   4.736
  293PC     C3111501   2.005   3.077   4.724
  293PC     H1A11502   2.002   3.139   4.814
  293PC     H1B11503   2.051   3.128   4.638
  293PC     C3211504   1.859   3.023   4.689
  293PC     H2A11505   1.858   2.932   4.630
  293PC     H2B11506   1.805   2.987   4.776
  293PC     N3111507   1.767   3.110   4.618
  293PC     C3311508   1.706   3.208   4.713
  293PC     H3A11509   1.632   3.275   4.669
  293PC     H3B11510   1.781   3.280   4.747
  293PC     H3C11511   1.656   3.151   4.791
  293PC     C3411512   1.654   3.028   4.561
  293PC     H4A11513   1.577   3.095   4.523
  293PC     H4B11514   1.620   2.963   4.641
  293PC     H4C11515   1.695   2.970   4.478
  293PC     C3511516   1.829   3.206   4.511
  293PC     H5A11517   1.755   3.267   4.458
  293PC     H5B11518   1.878   3.145   4.435
  293PC     H5C11519   1.900   3.278   4.552
  293PC     O3311520   2.279   3.076   4.642
  293PC     O3411521   2.291   2.833   4.690
  293PC     O2111522   2.512   2.768   5.042
  293PC     C2111523   2.602   2.669   5.012
  293PC     O2211524   2.658   2.658   4.908
  294MY    H14T11525   3.259   2.049   6.206
  294MY    C11411526   3.297   2.019   6.108
  294MY    H14R11527   3.252   1.923   6.079
  294MY    H14S11528   3.405   2.007   6.112
  294MY    C11311529   3.251   2.113   6.010
  294MY    H13R11530   3.280   2.211   6.047
  294MY    H13S11531   3.299   2.096   5.913
  294MY    C11211532   3.095   2.114   5.991
  294MY    H12R11533   3.054   2.021   5.951
  294MY    H12S11534   3.040   2.128   6.084
  294MY    C11111535   3.051   2.239   5.911
  294MY    H11R11536   2.942   2.241   5.904
  294MY    H11S11537   3.086   2.323   5.972
  294MY    C11011538   3.103   2.239   5.767
  294MY    H10R11539   3.206   2.276   5.771
  294MY    H10S11540   3.106   2.140   5.721
  294MY     C1911541   3.034   2.352   5.682
  294MY     H9R11542   2.926   2.341   5.677
  294MY     H9S11543   3.056   2.441   5.741
  294MY     C1811544   3.103   2.355   5.544
  294MY     H8R11545   3.208   2.335   5.568
  294MY     H8S11546   3.070   2.284   5.468
  294MY     C1711547   3.097   2.501   5.486
  294MY     H7R11548   3.126   2.572   5.564
  294MY     H7S11549   3.168   2.514   5.405
  294MY     C1611550   2.959   2.537   5.423
  294MY     H6R11551   2.892   2.578   5.499
  294MY     H6S11552   2.967   2.616   5.348
  294MY     C1511553   2.883   2.416   5.353
  294MY     H5R11554   2.944   2.393   5.265
  294MY     H5S11555   2.869   2.335   5.425
  294MY     C1411556   2.748   2.448   5.301
  294MY     H4R11557   2.694   2.358   5.269
  294MY     H4S11558   2.689   2.485   5.384
  294MY     C1311559   2.743   2.554   5.190
  294MY     H3R11560   2.778   2.650   5.229
  294MY     H3S11561   2.815   2.523   5.115
  294MY     C1211562   2.601   2.573   5.128
  294MY     H2R11563   2.551   2.483   5.092
  294MY     H2S11564   2.532   2.615   5.201
  295MY    H14T11565   0.982  -0.044   6.334
  295MY    C11411566   0.973   0.010   6.239
  295MY    H14R11567   0.999   0.114   6.256
  295MY    H14S11568   1.044  -0.031   6.167
  295MY    C11311569   0.829  -0.006   6.191
  295MY    H13R11570   0.799  -0.110   6.199
  295MY    H13S11571   0.774   0.061   6.259
  295MY    C11211572   0.803   0.037   6.045
  295MY    H12R11573   0.696   0.054   6.033
  295MY    H12S11574   0.848   0.136   6.030
  295MY    C11111575   0.852  -0.067   5.947
  295MY    H11R11576   0.960  -0.059   5.962
  295MY    H11S11577   0.827  -0.166   5.983
  295MY    C11011578   0.806  -0.043   5.804
  295MY    H10R11579   0.697  -0.046   5.794
  295MY    H10S11580   0.829   0.063   5.796
  295MY     C1911581   0.881  -0.137   5.707
  295MY     H9R11582   0.867  -0.104   5.604
  295MY     H9S11583   0.989  -0.136   5.726
  295MY     C1811584   0.842  -0.284   5.708
  295MY     H8R11585   0.866  -0.324   5.807
  295MY     H8S11586   0.738  -0.297   5.679
  295MY     C1711587   0.929  -0.361   5.605
  295MY     H7R11588   0.878  -0.348   5.510
  295MY     H7S11589   1.029  -0.317   5.603
  295MY     C1611590   0.932  -0.512   5.652
  295MY     H6R11591   0.965  -0.523   5.755
  295MY     H6S11592   0.833  -0.558   5.649
  295MY     C1511593   1.026  -0.595   5.557
  295MY     H5R11594   1.011  -0.700   5.581
  295MY     H5S11595   0.997  -0.568   5.456
  295MY     C1411596   1.174  -0.567   5.579
  295MY     H4R11597   1.201  -0.462   5.564
  295MY     H4S11598   1.199  -0.590   5.683
  295MY     C1311599   1.259  -0.659   5.495
  295MY     H3R11600   1.226  -0.763   5.504
  295MY     H3S11601   1.244  -0.620   5.395
  295MY     C1211602   1.411  -0.650   5.533
  295MY     H2R11603   1.431  -0.544   5.553
  295MY     H2S11604   1.418  -0.706   5.626
  296PC     C1111605   1.507  -0.710   5.432
  296PC     O1211606   1.478  -0.801   5.350
  296PC     O1111607   1.633  -0.671   5.453
  296PC      C111608   1.736  -0.745   5.370
  296PC      HR11609   1.736  -0.851   5.397
  296PC      HS11610   1.703  -0.736   5.266
  296PC      C211611   1.878  -0.680   5.376
  296PC      HX11612   1.889  -0.597   5.306
  296PC      C311613   1.975  -0.787   5.316
  296PC      HA11614   2.076  -0.747   5.331
  296PC      HB11615   1.953  -0.878   5.372
  296PC     O3111616   1.958  -0.811   5.173
  296PC     P3111617   2.042  -0.731   5.060
  296PC     O3211618   2.190  -0.778   5.086
  296PC     C3111619   2.228  -0.914   5.061
  296PC     H1A11620   2.294  -0.949   5.141
  296PC     H1B11621   2.138  -0.976   5.064
  296PC     C3211622   2.288  -0.928   4.921
  296PC     H2A11623   2.325  -1.031   4.916
  296PC     H2B11624   2.201  -0.910   4.857
  296PC     N3111625   2.409  -0.856   4.881
  296PC     C3311626   2.440  -0.913   4.744
  296PC     H3A11627   2.543  -0.885   4.724
  296PC     H3B11628   2.367  -0.867   4.677
  296PC     H3C11629   2.430  -1.021   4.751
  296PC     C3411630   2.520  -0.876   4.978
  296PC     H4A11631   2.548  -0.981   4.964
  296PC     H4B11632   2.486  -0.842   5.075
  296PC     H4C11633   2.606  -0.816   4.947
  296PC     C3511634   2.378  -0.709   4.856
  296PC     H5A11635   2.286  -0.710   4.797
  296PC     H5B11636   2.463  -0.665   4.804
  296PC     H5C11637   2.359  -0.654   4.948
  296PC     O3311638   2.006  -0.772   4.924
  296PC     O3411639   2.034  -0.590   5.095
  296PC     O2111640   1.921  -0.649   5.510
  296PC     C2111641   1.872  -0.540   5.564
  296PC     O2211642   1.802  -0.459   5.502
  297MY    H14T11643   1.447  -0.280   6.849
  297MY    C11411644   1.544  -0.261   6.802
  297MY    H14R11645   1.582  -0.164   6.834
  297MY    H14S11646   1.609  -0.344   6.830
  297MY    C11311647   1.521  -0.257   6.645
  297MY    H13R11648   1.621  -0.258   6.603
  297MY    H13S11649   1.471  -0.345   6.602
  297MY    C11211650   1.432  -0.136   6.609
  297MY    H12R11651   1.336  -0.165   6.654
  297MY    H12S11652   1.469  -0.046   6.658
  297MY    C11111653   1.396  -0.108   6.462
  297MY    H11R11654   1.325  -0.188   6.441
  297MY    H11S11655   1.347  -0.011   6.448
  297MY    C11011656   1.515  -0.113   6.367
  297MY    H10R11657   1.589  -0.035   6.387
  297MY    H10S11658   1.562  -0.211   6.377
  297MY     C1911659   1.463  -0.104   6.220
  297MY     H9R11660   1.395  -0.187   6.198
  297MY     H9S11661   1.412  -0.008   6.211
  297MY     C1811662   1.578  -0.106   6.118
  297MY     H8R11663   1.533  -0.088   6.020
  297MY     H8S11664   1.648  -0.024   6.132
  297MY     C1711665   1.657  -0.234   6.104
  297MY     H7R11666   1.702  -0.253   6.202
  297MY     H7S11667   1.592  -0.321   6.098
  297MY     C1611668   1.775  -0.240   6.004
  297MY     H6R11669   1.735  -0.231   5.902
  297MY     H6S11670   1.839  -0.154   6.024
  297MY     C1511671   1.852  -0.376   6.019
  297MY     H5R11672   1.947  -0.355   5.969
  297MY     H5S11673   1.875  -0.402   6.122
  297MY     C1411674   1.788  -0.490   5.944
  297MY     H4R11675   1.836  -0.585   5.970
  297MY     H4S11676   1.690  -0.512   5.988
  297MY     C1311677   1.786  -0.471   5.789
  297MY     H3R11678   1.693  -0.504   5.742
  297MY     H3S11679   1.797  -0.366   5.761
  297MY     C1211680   1.904  -0.535   5.709
  297MY     H2R11681   1.998  -0.484   5.731
  297MY     H2S11682   1.911  -0.637   5.746
  298MY    H14T11683   3.355   0.780   6.251
  298MY    C11411684   3.444   0.836   6.225
  298MY    H14R11685   3.429   0.940   6.257
  298MY    H14S11686   3.531   0.796   6.277
  298MY    C11311687   3.464   0.807   6.078
  298MY    H13R11688   3.512   0.709   6.070
  298MY    H13S11689   3.368   0.787   6.031
  298MY    C11211690   3.560   0.912   6.017
  298MY    H12R11691   3.647   0.921   6.083
  298MY    H12S11692   3.593   0.878   5.919
  298MY    C11111693   3.502   1.048   5.986
  298MY    H11R11694   3.474   1.099   6.079
  298MY    H11S11695   3.579   1.106   5.936
  298MY    C11011696   3.379   1.049   5.891
  298MY    H10R11697   3.401   1.009   5.792
  298MY    H10S11698   3.305   0.980   5.931
  298MY     C1911699   3.324   1.192   5.868
  298MY     H9R11700   3.284   1.223   5.965
  298MY     H9S11701   3.407   1.258   5.843
  298MY     C1811702   3.201   1.207   5.769
  298MY     H8R11703   3.244   1.180   5.673
  298MY     H8S11704   3.119   1.138   5.789
  298MY     C1711705   3.137   1.345   5.760
  298MY     H7R11706   3.104   1.369   5.861
  298MY     H7S11707   3.215   1.420   5.741
  298MY     C1611708   3.019   1.358   5.667
  298MY     H6R11709   2.954   1.274   5.695
  298MY     H6S11710   2.972   1.456   5.675
  298MY     C1511711   3.064   1.347   5.521
  298MY     H5R11712   3.119   1.254   5.502
  298MY     H5S11713   2.982   1.338   5.449
  298MY     C1411714   3.153   1.472   5.476
  298MY     H4R11715   3.136   1.560   5.538
  298MY     H4S11716   3.256   1.438   5.488
  298MY     C1311717   3.148   1.502   5.319
  298MY     H3R11718   3.197   1.594   5.288
  298MY     H3S11719   3.188   1.418   5.262
  298MY     C1211720   2.992   1.531   5.277
  298MY     H2R11721   2.945   1.433   5.287
  298MY     H2S11722   2.952   1.607   5.343
  299PC     C1111723   2.983   1.587   5.137
  299PC     O1211724   3.048   1.688   5.111
  299PC     O1111725   2.907   1.523   5.053
  299PC      C111726   2.884   1.580   4.920
  299PC      HR11727   2.973   1.637   4.893
  299PC      HS11728   2.865   1.503   4.844
  299PC      C211729   2.760   1.678   4.928
  299PC      HX11730   2.682   1.624   4.983
  299PC      C311731   2.707   1.724   4.791
  299PC      HA11732   2.678   1.638   4.731
  299PC      HB11733   2.624   1.792   4.814
  299PC     O3111734   2.805   1.796   4.726
  299PC     P3111735   2.780   1.860   4.582
  299PC     O3211736   2.690   1.987   4.616
  299PC     C3111737   2.743   2.119   4.639
  299PC     H1A11738   2.813   2.134   4.557
  299PC     H1B11739   2.665   2.195   4.639
  299PC     C3211740   2.814   2.116   4.769
  299PC     H2A11741   2.743   2.096   4.850
  299PC     H2B11742   2.892   2.042   4.752
  299PC     N3111743   2.898   2.242   4.805
  299PC     C3311744   3.015   2.253   4.715
  299PC     H3A11745   3.076   2.332   4.760
  299PC     H3B11746   2.987   2.280   4.613
  299PC     H3C11747   3.065   2.156   4.712
  299PC     C3411748   2.933   2.230   4.946
  299PC     H4A11749   3.012   2.154   4.948
  299PC     H4B11750   2.849   2.200   5.010
  299PC     H4C11751   2.970   2.327   4.978
  299PC     C3511752   2.811   2.365   4.788
  299PC     H5A11753   2.874   2.452   4.807
  299PC     H5B11754   2.724   2.354   4.852
  299PC     H5C11755   2.775   2.383   4.686
  299PC     O3311756   2.918   1.913   4.543
  299PC     O3411757   2.701   1.767   4.503
  299PC     O2111758   2.794   1.790   5.012
  299PC     C2111759   2.764   1.789   5.146
  299PC     O2211760   2.720   1.691   5.206
  300MY    H14T11761   2.688   1.675   6.277
  300MY    C11411762   2.782   1.725   6.250
  300MY    H14R11763   2.861   1.698   6.320
  300MY    H14S11764   2.822   1.684   6.157
  300MY    C11311765   2.766   1.875   6.253
  300MY    H13R11766   2.742   1.913   6.352
  300MY    H13S11767   2.864   1.914   6.225
  300MY    C11211768   2.657   1.928   6.149
  300MY    H12R11769   2.702   1.897   6.054
  300MY    H12S11770   2.569   1.864   6.153
  300MY    C11111771   2.625   2.077   6.151
  300MY    H11R11772   2.518   2.091   6.169
  300MY    H11S11773   2.673   2.130   6.234
  300MY    C11011774   2.674   2.152   6.029
  300MY    H10R11775   2.681   2.259   6.050
  300MY    H10S11776   2.776   2.123   6.006
  300MY     C1911777   2.598   2.136   5.892
  300MY     H9R11778   2.518   2.061   5.894
  300MY     H9S11779   2.544   2.227   5.867
  300MY     C1811780   2.700   2.115   5.773
  300MY     H8R11781   2.654   2.156   5.682
  300MY     H8S11782   2.789   2.177   5.790
  300MY     C1711783   2.741   1.972   5.758
  300MY     H7R11784   2.765   1.943   5.861
  300MY     H7S11785   2.658   1.909   5.725
  300MY     C1611786   2.855   1.935   5.666
  300MY     H6R11787   2.947   1.981   5.702
  300MY     H6S11788   2.862   1.828   5.688
  300MY     C1511789   2.842   1.984   5.520
  300MY     H5R11790   2.822   2.091   5.510
  300MY     H5S11791   2.940   1.964   5.476
  300MY     C1411792   2.725   1.906   5.455
  300MY     H4R11793   2.745   1.799   5.453
  300MY     H4S11794   2.633   1.907   5.515
  300MY     C1311795   2.699   1.968   5.316
  300MY     H3R11796   2.595   1.951   5.289
  300MY     H3S11797   2.692   2.076   5.329
  300MY     C1211798   2.792   1.919   5.207
  300MY     H2R11799   2.781   1.992   5.126
  300MY     H2S11800   2.897   1.921   5.234
  301MY    H14T11801   5.479   4.489   6.164
  301MY    C11411802   5.552   4.414   6.134
  301MY    H14R11803   5.541   4.339   6.213
  301MY    H14S11804   5.547   4.372   6.033
  301MY    C11311805   5.691   4.474   6.138
  301MY    H13R11806   5.714   4.521   6.234
  301MY    H13S11807   5.760   4.390   6.127
  301MY    C11211808   5.696   4.581   6.029
  301MY    H12R11809   5.675   4.541   5.930
  301MY    H12S11810   5.611   4.649   6.044
  301MY    C11111811   5.822   4.670   6.028
  301MY    H11R11812   5.854   4.700   6.128
  301MY    H11S11813   5.897   4.605   5.981
  301MY    C11011814   5.806   4.801   5.947
  301MY    H10R11815   5.732   4.863   5.998
  301MY    H10S11816   5.897   4.861   5.946
  301MY     C1911817   5.760   4.758   5.801
  301MY     H9R11818   5.829   4.682   5.763
  301MY     H9S11819   5.655   4.729   5.795
  301MY     C1811820   5.780   4.877   5.698
  301MY     H8R11821   5.731   4.970   5.728
  301MY     H8S11822   5.884   4.896   5.672
  301MY     C1711823   5.709   4.831   5.571
  301MY     H7R11824   5.773   4.754   5.527
  301MY     H7S11825   5.612   4.787   5.593
  301MY     C1611826   5.684   4.951   5.476
  301MY     H6R11827   5.638   5.022   5.545
  301MY     H6S11828   5.778   4.994   5.441
  301MY     C1511829   5.589   4.929   5.354
  301MY     H5R11830   5.646   4.868   5.284
  301MY     H5S11831   5.502   4.872   5.388
  301MY     C1411832   5.539   5.046   5.268
  301MY     H4R11833   5.465   5.103   5.324
  301MY     H4S11834   5.620   5.116   5.247
  301MY     C1311835   5.459   5.001   5.143
  301MY     H3R11836   5.388   4.929   5.185
  301MY     H3S11837   5.422   5.096   5.105
  301MY     C1211838   5.540   4.930   5.029
  301MY     H2R11839   5.590   4.841   5.067
  301MY     H2S11840   5.482   4.901   4.941
  302PC     C1111841   5.650   5.024   4.975
  302PC     O1211842   5.644   5.148   4.979
  302PC     O1111843   5.747   4.954   4.915
  302PC      C111844   5.847   5.023   4.842
  302PC      HR11845   5.859   4.960   4.753
  302PC      HS11846   5.809   5.123   4.816
  302PC      C211847   5.979   5.029   4.927
  302PC      HX11848   5.987   5.128   4.971
  302PC      C311849   6.102   5.016   4.831
  302PC      HA11850   6.195   5.042   4.882
  302PC      HB11851   6.101   4.918   4.783
  302PC     O3111852   6.086   5.114   4.719
  302PC     P3111853   6.213   5.161   4.632
  302PC     O3211854   6.292   5.247   4.733
  302PC     C3111855   6.242   5.376   4.771
  302PC     H1A11856   6.249   5.447   4.688
  302PC     H1B11857   6.142   5.363   4.813
  302PC     C3211858   6.326   5.435   4.887
  302PC     H2A11859   6.298   5.374   4.973
  302PC     H2B11860   6.431   5.415   4.867
  302PC     N3111861   6.320   5.586   4.911
  302PC     C3311862   6.184   5.624   4.956
  302PC     H3A11863   6.162   5.566   5.046
  302PC     H3B11864   6.111   5.598   4.879
  302PC     H3C11865   6.181   5.731   4.974
  302PC     C3411866   6.356   5.665   4.784
  302PC     H4A11867   6.460   5.638   4.763
  302PC     H4B11868   6.353   5.770   4.813
  302PC     H4C11869   6.283   5.646   4.706
  302PC     C3511870   6.420   5.626   5.014
  302PC     H5A11871   6.522   5.605   4.983
  302PC     H5B11872   6.379   5.589   5.108
  302PC     H5C11873   6.398   5.733   5.023
  302PC     O3311874   6.288   5.033   4.613
  302PC     O3411875   6.175   5.238   4.513
  302PC     O2111876   5.990   4.917   5.025
  302PC     C2111877   6.041   4.951   5.145
  302PC     O2211878   6.039   5.069   5.185
  303MY    H14T11879   6.110   4.580   6.472
  303MY    C11411880   6.107   4.514   6.385
  303MY    H14R11881   6.102   4.414   6.430
  303MY    H14S11882   6.021   4.545   6.326
  303MY    C11311883   6.239   4.531   6.314
  303MY    H13R11884   6.300   4.460   6.370
  303MY    H13S11885   6.234   4.496   6.211
  303MY    C11211886   6.286   4.677   6.327
  303MY    H12R11887   6.312   4.705   6.429
  303MY    H12S11888   6.378   4.682   6.267
  303MY    C11111889   6.187   4.781   6.261
  303MY    H11R11890   6.089   4.758   6.303
  303MY    H11S11891   6.215   4.884   6.284
  303MY    C11011892   6.169   4.765   6.108
  303MY    H10R11893   6.153   4.658   6.094
  303MY    H10S11894   6.088   4.830   6.073
  303MY     C1911895   6.297   4.793   6.030
  303MY     H9R11896   6.321   4.897   6.052
  303MY     H9S11897   6.378   4.725   6.054
  303MY     C1811898   6.277   4.802   5.879
  303MY     H8R11899   6.205   4.881   5.855
  303MY     H8S11900   6.372   4.829   5.832
  303MY     C1711901   6.235   4.668   5.806
  303MY     H7R11902   6.291   4.589   5.857
  303MY     H7S11903   6.129   4.654   5.826
  303MY     C1611904   6.257   4.668   5.654
  303MY     H6R11905   6.350   4.714   5.619
  303MY     H6S11906   6.257   4.566   5.616
  303MY     C1511907   6.143   4.739   5.583
  303MY     H5R11908   6.050   4.691   5.614
  303MY     H5S11909   6.148   4.844   5.612
  303MY     C1411910   6.155   4.730   5.433
  303MY     H4R11911   6.262   4.733   5.411
  303MY     H4S11912   6.118   4.638   5.387
  303MY     C1311913   6.080   4.850   5.363
  303MY     H3R11914   5.974   4.856   5.388
  303MY     H3S11915   6.120   4.946   5.396
  303MY     C1211916   6.098   4.832   5.215
  303MY     H2R11917   6.203   4.828   5.183
  303MY     H2S11918   6.052   4.737   5.187
  304MY    H14T11919   4.887   3.693   6.037
  304MY    C11411920   4.883   3.798   6.007
  304MY    H14R11921   4.796   3.853   6.046
  304MY    H14S11922   4.970   3.840   6.057
  304MY    C11311923   4.895   3.816   5.853
  304MY    H13R11924   4.792   3.809   5.816
  304MY    H13S11925   4.930   3.912   5.816
  304MY    C11211926   4.986   3.708   5.779
  304MY    H12R11927   5.091   3.711   5.808
  304MY    H12S11928   4.959   3.603   5.793
  304MY    C11111929   4.990   3.734   5.623
  304MY    H11R11930   4.891   3.718   5.581
  304MY    H11S11931   5.018   3.838   5.605
  304MY    C11011932   5.089   3.646   5.545
  304MY    H10R11933   5.192   3.670   5.572
  304MY    H10S11934   5.086   3.538   5.562
  304MY     C1911935   5.082   3.668   5.395
  304MY     H9R11936   4.991   3.622   5.357
  304MY     H9S11937   5.077   3.772   5.363
  304MY     C1811938   5.196   3.597   5.314
  304MY     H8R11939   5.294   3.622   5.355
  304MY     H8S11940   5.196   3.489   5.329
  304MY     C1711941   5.188   3.624   5.163
  304MY     H7R11942   5.184   3.733   5.149
  304MY     H7S11943   5.281   3.590   5.116
  304MY     C1611944   5.069   3.553   5.097
  304MY     H6R11945   4.980   3.613   5.118
  304MY     H6S11946   5.079   3.550   4.988
  304MY     C1511947   5.050   3.404   5.133
  304MY     H5R11948   5.140   3.342   5.142
  304MY     H5S11949   5.007   3.402   5.233
  304MY     C1411950   4.951   3.335   5.038
  304MY     H4R11951   4.929   3.236   5.080
  304MY     H4S11952   4.855   3.387   5.043
  304MY     C1311953   4.998   3.321   4.890
  304MY     H3R11954   4.936   3.239   4.852
  304MY     H3S11955   4.981   3.417   4.842
  304MY     C1211956   5.150   3.294   4.863
  304MY     H2R11957   5.204   3.383   4.828
  304MY     H2S11958   5.198   3.255   4.953
  305PC     C1111959   5.155   3.191   4.756
  305PC     O1211960   5.094   3.202   4.653
  305PC     O1111961   5.232   3.085   4.783
  305PC      C111962   5.292   3.014   4.675
  305PC      HR11963   5.330   2.922   4.721
  305PC      HS11964   5.215   2.994   4.600
  305PC      C211965   5.421   3.070   4.621
  305PC      HX11966   5.399   3.172   4.590
  305PC      C311967   5.462   2.986   4.497
  305PC      HA11968   5.565   3.011   4.470
  305PC      HB11969   5.445   2.884   4.532
  305PC     O3111970   5.368   3.013   4.379
  305PC     P3111971   5.419   3.091   4.248
  305PC     O3211972   5.411   3.239   4.298
  305PC     C3111973   5.289   3.307   4.332
  305PC     H1A11974   5.226   3.298   4.243
  305PC     H1B11975   5.242   3.260   4.419
  305PC     C3211976   5.336   3.454   4.357
  305PC     H2A11977   5.403   3.451   4.443
  305PC     H2B11978   5.395   3.483   4.270
  305PC     N3111979   5.223   3.545   4.384
  305PC     C3311980   5.141   3.499   4.500
  305PC     H3A11981   5.087   3.407   4.479
  305PC     H3B11982   5.058   3.568   4.519
  305PC     H3C11983   5.210   3.495   4.583
  305PC     C3411984   5.138   3.568   4.264
  305PC     H4A11985   5.201   3.596   4.180
  305PC     H4B11986   5.064   3.644   4.288
  305PC     H4C11987   5.081   3.475   4.252
  305PC     C3511988   5.276   3.675   4.424
  305PC     H5A11989   5.375   3.679   4.378
  305PC     H5B11990   5.272   3.681   4.532
  305PC     H5C11991   5.221   3.760   4.383
  305PC     O3311992   5.559   3.062   4.221
  305PC     O3411993   5.327   3.072   4.137
  305PC     O2111994   5.533   3.065   4.711
  305PC     C2111995   5.544   3.166   4.807
  305PC     O2211996   5.485   3.274   4.805
  306MY    H14T11997   5.758   3.781   5.773
  306MY    C11411998   5.847   3.723   5.801
  306MY    H14R11999   5.934   3.786   5.782
  306MY    H14S12000   5.835   3.685   5.903
  306MY    C11312001   5.848   3.595   5.717
  306MY    H13R12002   5.846   3.626   5.612
  306MY    H13S12003   5.947   3.548   5.722
  306MY    C11212004   5.736   3.494   5.746
  306MY    H12R12005   5.750   3.465   5.850
  306MY    H12S12006   5.640   3.546   5.748
  306MY    C11112007   5.722   3.378   5.646
  306MY    H11R12008   5.636   3.321   5.683
  306MY    H11S12009   5.699   3.415   5.546
  306MY    C11012010   5.851   3.295   5.653
  306MY    H10R12011   5.936   3.343   5.604
  306MY    H10S12012   5.874   3.289   5.759
  306MY     C1912013   5.824   3.152   5.612
  306MY     H9R12014   5.906   3.094   5.654
  306MY     H9S12015   5.732   3.122   5.663
  306MY     C1812016   5.799   3.137   5.465
  306MY     H8R12017   5.756   3.037   5.451
  306MY     H8S12018   5.734   3.217   5.428
  306MY     C1712019   5.936   3.154   5.399
  306MY     H7R12020   5.981   3.250   5.422
  306MY     H7S12021   5.995   3.069   5.436
  306MY     C1612022   5.934   3.133   5.242
  306MY     H6R12023   6.032   3.147   5.196
  306MY     H6S12024   5.897   3.031   5.228
  306MY     C1512025   5.833   3.228   5.172
  306MY     H5R12026   5.731   3.194   5.194
  306MY     H5S12027   5.838   3.323   5.225
  306MY     C1412028   5.858   3.237   5.023
  306MY     H4R12029   5.920   3.323   4.996
  306MY     H4S12030   5.911   3.150   4.985
  306MY     C1312031   5.739   3.266   4.930
  306MY     H3R12032   5.677   3.347   4.969
  306MY     H3S12033   5.777   3.291   4.831
  306MY     C1212034   5.643   3.146   4.919
  306MY     H2R12035   5.689   3.054   4.884
  306MY     H2S12036   5.587   3.134   5.013
  307MY    H14T12037   6.017   3.979   5.889
  307MY    C11412038   5.961   4.046   5.955
  307MY    H14R12039   5.865   4.000   5.977
  307MY    H14S12040   6.019   4.051   6.047
  307MY    C11312041   5.939   4.182   5.886
  307MY    H13R12042   5.902   4.246   5.966
  307MY    H13S12043   6.036   4.216   5.848
  307MY    C11212044   5.833   4.179   5.770
  307MY    H12R12045   5.880   4.126   5.687
  307MY    H12S12046   5.739   4.134   5.802
  307MY    C11112047   5.792   4.322   5.722
  307MY    H11R12048   5.724   4.311   5.638
  307MY    H11S12049   5.751   4.376   5.808
  307MY    C11012050   5.902   4.418   5.680
  307MY    H10R12051   5.868   4.515   5.641
  307MY    H10S12052   5.966   4.445   5.765
  307MY     C1912053   6.009   4.368   5.584
  307MY     H9R12054   6.091   4.438   5.567
  307MY     H9S12055   6.056   4.276   5.618
  307MY     C1812056   5.944   4.345   5.448
  307MY     H8R12057   5.854   4.284   5.461
  307MY     H8S12058   5.918   4.443   5.409
  307MY     C1712059   6.044   4.275   5.357
  307MY     H7R12060   6.124   4.345   5.334
  307MY     H7S12061   6.076   4.182   5.405
  307MY     C1612062   5.979   4.234   5.224
  307MY     H6R12063   5.893   4.172   5.248
  307MY     H6S12064   5.962   4.327   5.170
  307MY     C1512065   6.067   4.147   5.132
  307MY     H5R12066   6.165   4.187   5.104
  307MY     H5S12067   6.093   4.063   5.197
  307MY     C1412068   5.996   4.101   5.008
  307MY     H4R12069   5.908   4.051   5.049
  307MY     H4S12070   5.961   4.189   4.952
  307MY     C1312071   6.065   4.002   4.917
  307MY     H3R12072   6.165   4.035   4.888
  307MY     H3S12073   6.077   3.914   4.982
  307MY     C1212074   5.986   3.957   4.788
  307MY     H2R12075   5.994   3.852   4.759
  307MY     H2S12076   5.881   3.983   4.803
  308PC     C1112077   6.033   4.041   4.670
  308PC     O1212078   6.097   3.992   4.578
  308PC     O1112079   5.999   4.170   4.677
  308PC      C112080   6.016   4.246   4.554
  308PC      HR12081   6.114   4.218   4.513
  308PC      HS12082   5.926   4.227   4.494
  308PC      C212083   6.023   4.399   4.601
  308PC      HX12084   5.924   4.426   4.640
  308PC      C312085   6.040   4.489   4.481
  308PC      HA12086   5.971   4.572   4.498
  308PC      HB12087   6.143   4.525   4.475
  308PC     O3112088   6.010   4.424   4.353
  308PC     P3112089   6.079   4.463   4.218
  308PC     O3212090   6.002   4.584   4.164
  308PC     C3112091   6.032   4.719   4.201
  308PC     H1A12092   5.935   4.768   4.197
  308PC     H1B12093   6.059   4.721   4.306
  308PC     C3212094   6.128   4.779   4.096
  308PC     H2A12095   6.135   4.885   4.122
  308PC     H2B12096   6.227   4.736   4.111
  308PC     N3112097   6.092   4.773   3.949
  308PC     C3312098   6.124   4.638   3.892
  308PC     H3A12099   6.065   4.564   3.947
  308PC     H3B12100   6.230   4.613   3.895
  308PC     H3C12101   6.090   4.656   3.790
  308PC     C3412102   6.171   4.875   3.878
  308PC     H4A12103   6.142   4.871   3.773
  308PC     H4B12104   6.279   4.857   3.887
  308PC     H4C12105   6.146   4.973   3.918
  308PC     C3512106   5.944   4.811   3.936
  308PC     H5A12107   5.890   4.738   3.996
  308PC     H5B12108   5.921   4.801   3.830
  308PC     H5C12109   5.921   4.911   3.973
  308PC     O3312110   6.220   4.502   4.238
  308PC     O3412111   6.049   4.362   4.117
  308PC     O2112112   6.130   4.423   4.691
  308PC     C2112113   6.098   4.445   4.818
  308PC     O2212114   5.992   4.443   4.865
  309MY    H14T12115   7.063   5.042   5.984
  309MY    C11412116   7.019   4.942   5.988
  309MY    H14R12117   7.085   4.868   5.942
  309MY    H14S12118   7.013   4.915   6.094
  309MY    C11312119   6.885   4.918   5.921
  309MY    H13R12120   6.836   4.835   5.972
  309MY    H13S12121   6.816   5.000   5.943
  309MY    C11212122   6.881   4.896   5.769
  309MY    H12R12123   6.928   4.974   5.708
  309MY    H12S12124   6.936   4.803   5.755
  309MY    C11112125   6.741   4.863   5.711
  309MY    H11R12126   6.701   4.766   5.741
  309MY    H11S12127   6.654   4.919   5.747
  309MY    C11012128   6.757   4.872   5.559
  309MY    H10R12129   6.779   4.972   5.521
  309MY    H10S12130   6.841   4.806   5.535
  309MY     C1912131   6.628   4.832   5.482
  309MY     H9R12132   6.588   4.746   5.536
  309MY     H9S12133   6.559   4.914   5.465
  309MY     C1812134   6.671   4.782   5.345
  309MY     H8R12135   6.741   4.850   5.295
  309MY     H8S12136   6.721   4.685   5.349
  309MY     C1712137   6.550   4.774   5.250
  309MY     H7R12138   6.476   4.711   5.299
  309MY     H7S12139   6.504   4.873   5.252
  309MY     C1612140   6.586   4.734   5.101
  309MY     H6R12141   6.658   4.807   5.063
  309MY     H6S12142   6.644   4.642   5.102
  309MY     C1512143   6.467   4.730   5.008
  309MY     H5R12144   6.402   4.816   5.027
  309MY     H5S12145   6.509   4.723   4.907
  309MY     C1412146   6.385   4.602   5.023
  309MY     H4R12147   6.460   4.523   5.013
  309MY     H4S12148   6.346   4.605   5.124
  309MY     C1312149   6.274   4.592   4.915
  309MY     H3R12150   6.204   4.667   4.953
  309MY     H3S12151   6.310   4.626   4.817
  309MY     C1212152   6.218   4.450   4.904
  309MY     H2R12153   6.291   4.384   4.857
  309MY     H2S12154   6.201   4.410   5.004
  310MY    H14T12155   3.448   3.893   5.843
  310MY    C11412156   3.447   3.833   5.753
  310MY    H14R12157   3.538   3.771   5.750
  310MY    H14S12158   3.357   3.771   5.754
  310MY    C11312159   3.453   3.932   5.633
  310MY    H13R12160   3.447   3.879   5.538
  310MY    H13S12161   3.357   3.985   5.629
  310MY    C11212162   3.570   4.031   5.618
  310MY    H12R12163   3.554   4.094   5.530
  310MY    H12S12164   3.560   4.088   5.711
  310MY    C11112165   3.711   3.954   5.603
  310MY    H11R12166   3.722   3.886   5.688
  310MY    H11S12167   3.700   3.889   5.516
  310MY    C11012168   3.832   4.041   5.579
  310MY    H10R12169   3.829   4.134   5.635
  310MY    H10S12170   3.926   4.001   5.616
  310MY     C1912171   3.846   4.095   5.430
  310MY     H9R12172   3.850   4.009   5.363
  310MY     H9S12173   3.756   4.151   5.402
  310MY     C1812174   3.975   4.180   5.402
  310MY     H8R12175   3.964   4.227   5.304
  310MY     H8S12176   3.998   4.250   5.483
  310MY     C1712177   4.094   4.085   5.401
  310MY     H7R12178   4.111   4.035   5.496
  310MY     H7S12179   4.070   4.008   5.326
  310MY     C1612180   4.230   4.146   5.350
  310MY     H6R12181   4.269   4.221   5.418
  310MY     H6S12182   4.305   4.066   5.352
  310MY     C1512183   4.228   4.198   5.201
  310MY     H5R12184   4.202   4.107   5.146
  310MY     H5S12185   4.148   4.272   5.192
  310MY     C1412186   4.359   4.255   5.139
  310MY     H4R12187   4.369   4.361   5.165
  310MY     H4S12188   4.444   4.204   5.184
  310MY     C1312189   4.372   4.228   4.988
  310MY     H3R12190   4.468   4.267   4.953
  310MY     H3S12191   4.370   4.118   4.988
  310MY     C1212192   4.253   4.283   4.906
  310MY     H2R12193   4.160   4.253   4.955
  310MY     H2S12194   4.265   4.391   4.914
  311PC     C1112195   4.261   4.241   4.766
  311PC     O1212196   4.356   4.255   4.692
  311PC     O1112197   4.146   4.187   4.730
  311PC      C112198   4.131   4.145   4.594
  311PC      HR12199   4.028   4.116   4.571
  311PC      HS12200   4.155   4.220   4.519
  311PC      C212201   4.222   4.023   4.559
  311PC      HX12202   4.328   4.038   4.580
  311PC      C312203   4.225   3.978   4.412
  311PC      HA12204   4.254   4.065   4.352
  311PC      HB12205   4.292   3.894   4.394
  311PC     O3112206   4.086   3.938   4.376
  311PC     P3112207   4.038   3.922   4.224
  311PC     O3212208   4.126   3.807   4.177
  311PC     C3112209   4.104   3.664   4.227
  311PC     H1A12210   4.132   3.657   4.333
  311PC     H1B12211   4.000   3.631   4.217
  311PC     C3212212   4.203   3.565   4.155
  311PC     H2A12213   4.308   3.594   4.163
  311PC     H2B12214   4.185   3.467   4.200
  311PC     N3112215   4.193   3.547   4.003
  311PC     C3312216   4.252   3.663   3.935
  311PC     H3A12217   4.358   3.665   3.963
  311PC     H3B12218   4.218   3.753   3.987
  311PC     H3C12219   4.243   3.654   3.826
  311PC     C3412220   4.053   3.529   3.966
  311PC     H4A12221   3.998   3.616   4.001
  311PC     H4B12222   4.003   3.442   4.008
  311PC     H4C12223   4.050   3.520   3.857
  311PC     C3512224   4.249   3.422   3.970
  311PC     H5A12225   4.349   3.428   4.014
  311PC     H5B12226   4.260   3.431   3.862
  311PC     H5C12227   4.188   3.341   4.011
  311PC     O3312228   3.898   3.877   4.228
  311PC     O3412229   4.068   4.051   4.159
  311PC     O2112230   4.183   3.911   4.639
  311PC     C2112231   4.240   3.893   4.756
  311PC     O2212232   4.340   3.954   4.793
  312MY    H14T12233   4.119   3.808   6.099
  312MY    C11412234   4.043   3.884   6.119
  312MY    H14R12235   4.020   3.904   6.224
  312MY    H14S12236   4.070   3.978   6.070
  312MY    C11312237   3.910   3.836   6.060
  312MY    H13R12238   3.878   3.738   6.097
  312MY    H13S12239   3.836   3.906   6.101
  312MY    C11212240   3.895   3.848   5.911
  312MY    H12R12241   3.787   3.851   5.903
  312MY    H12S12242   3.947   3.940   5.885
  312MY    C11112243   3.961   3.727   5.839
  312MY    H11R12244   3.940   3.631   5.887
  312MY    H11S12245   3.919   3.738   5.739
  312MY    C11012246   4.115   3.740   5.827
  312MY    H10R12247   4.122   3.849   5.820
  312MY    H10S12248   4.169   3.720   5.920
  312MY     C1912249   4.156   3.656   5.698
  312MY     H9R12250   4.265   3.650   5.694
  312MY     H9S12251   4.117   3.554   5.707
  312MY     C1812252   4.122   3.715   5.561
  312MY     H8R12253   4.013   3.707   5.559
  312MY     H8S12254   4.148   3.821   5.556
  312MY     C1712255   4.175   3.630   5.440
  312MY     H7R12256   4.284   3.640   5.446
  312MY     H7S12257   4.136   3.529   5.450
  312MY     C1612258   4.128   3.687   5.306
  312MY     H6R12259   4.019   3.678   5.305
  312MY     H6S12260   4.160   3.791   5.294
  312MY     C1512261   4.186   3.602   5.187
  312MY     H5R12262   4.292   3.585   5.203
  312MY     H5S12263   4.140   3.505   5.210
  312MY     C1412264   4.142   3.640   5.050
  312MY     H4R12265   4.130   3.550   4.989
  312MY     H4S12266   4.042   3.682   5.061
  312MY     C1312267   4.229   3.746   4.972
  312MY     H3R12268   4.225   3.834   5.037
  312MY     H3S12269   4.330   3.706   4.961
  312MY     C1212270   4.167   3.785   4.833
  312MY     H2R12271   4.166   3.701   4.763
  312MY     H2S12272   4.065   3.823   4.842
  313MY    H14T12273   3.494   3.171   5.938
  313MY    C11412274   3.551   3.078   5.935
  313MY    H14R12275   3.655   3.102   5.959
  313MY    H14S12276   3.501   3.014   6.008
  313MY    C11312277   3.542   3.019   5.795
  313MY    H13R12278   3.579   3.084   5.715
  313MY    H13S12279   3.615   2.938   5.801
  313MY    C11212280   3.397   2.971   5.753
  313MY    H12R12281   3.342   2.925   5.835
  313MY    H12S12282   3.338   3.060   5.732
  313MY    C11112283   3.386   2.878   5.631
  313MY    H11R12284   3.281   2.864   5.604
  313MY    H11S12285   3.438   2.926   5.548
  313MY    C11012286   3.434   2.735   5.658
  313MY    H10R12287   3.540   2.733   5.686
  313MY    H10S12288   3.383   2.697   5.746
  313MY     C1912289   3.411   2.643   5.539
  313MY     H9R12290   3.433   2.543   5.577
  313MY     H9S12291   3.310   2.641   5.498
  313MY     C1812292   3.505   2.676   5.427
  313MY     H8R12293   3.497   2.781   5.397
  313MY     H8S12294   3.604   2.674   5.472
  313MY     C1712295   3.500   2.590   5.296
  313MY     H7R12296   3.511   2.493   5.344
  313MY     H7S12297   3.399   2.607   5.257
  313MY     C1612298   3.606   2.633   5.194
  313MY     H6R12299   3.597   2.577   5.100
  313MY     H6S12300   3.590   2.737   5.164
  313MY     C1512301   3.752   2.609   5.240
  313MY     H5R12302   3.762   2.681   5.322
  313MY     H5S12303   3.758   2.505   5.273
  313MY     C1412304   3.866   2.659   5.152
  313MY     H4R12305   3.859   2.766   5.135
  313MY     H4S12306   3.966   2.635   5.189
  313MY     C1312307   3.866   2.586   5.015
  313MY     H3R12308   3.781   2.616   4.953
  313MY     H3S12309   3.956   2.630   4.972
  313MY     C1212310   3.871   2.429   5.020
  313MY     H2R12311   3.935   2.387   5.098
  313MY     H2S12312   3.774   2.398   5.060
  314PC     C1112313   3.888   2.372   4.885
  314PC     O1212314   3.908   2.429   4.778
  314PC     O1112315   3.888   2.243   4.903
  314PC      C112316   3.881   2.154   4.780
  314PC      HR12317   3.832   2.062   4.814
  314PC      HS12318   3.816   2.187   4.699
  314PC      C212319   4.023   2.137   4.721
  314PC      HX12320   4.080   2.229   4.706
  314PC      C312321   4.008   2.048   4.587
  314PC      HA12322   4.107   2.011   4.558
  314PC      HB12323   3.938   1.966   4.607
  314PC     O3112324   3.957   2.119   4.472
  314PC     P3112325   4.051   2.219   4.383
  314PC     O3212326   4.029   2.358   4.462
  314PC     C3112327   3.929   2.452   4.418
  314PC     H1A12328   3.846   2.393   4.379
  314PC     H1B12329   3.899   2.506   4.508
  314PC     C3212330   4.003   2.549   4.317
  314PC     H2A12331   4.092   2.590   4.365
  314PC     H2B12332   4.025   2.489   4.229
  314PC     N3112333   3.922   2.671   4.270
  314PC     C3312334   3.811   2.623   4.183
  314PC     H3A12335   3.737   2.702   4.169
  314PC     H3B12336   3.760   2.541   4.234
  314PC     H3C12337   3.853   2.593   4.087
  314PC     C3412338   4.011   2.766   4.189
  314PC     H4A12339   4.081   2.706   4.130
  314PC     H4B12340   4.069   2.819   4.264
  314PC     H4C12341   3.953   2.848   4.146
  314PC     C3512342   3.872   2.759   4.386
  314PC     H5A12343   3.960   2.784   4.445
  314PC     H5B12344   3.800   2.703   4.446
  314PC     H5C12345   3.834   2.843   4.327
  314PC     O3312346   4.195   2.187   4.393
  314PC     O3412347   3.996   2.226   4.249
  314PC     O2112348   4.097   2.060   4.826
  314PC     C2112349   4.214   2.112   4.869
  314PC     O2212350   4.270   2.215   4.838
  315MY    H14T12351   4.503   2.032   5.945
  315MY    C11412352   4.565   1.957   5.994
  315MY    H14R12353   4.606   1.995   6.088
  315MY    H14S12354   4.509   1.866   6.014
  315MY    C11312355   4.687   1.934   5.908
  315MY    H13R12356   4.741   2.028   5.917
  315MY    H13S12357   4.749   1.859   5.957
  315MY    C11212358   4.659   1.889   5.766
  315MY    H12R12359   4.617   1.789   5.772
  315MY    H12S12360   4.575   1.945   5.724
  315MY    C11112361   4.776   1.891   5.662
  315MY    H11R12362   4.821   1.989   5.675
  315MY    H11S12363   4.850   1.814   5.686
  315MY    C11012364   4.727   1.876   5.514
  315MY    H10R12365   4.682   1.777   5.513
  315MY    H10S12366   4.657   1.957   5.489
  315MY     C1912367   4.845   1.893   5.416
  315MY     H9R12368   4.884   1.993   5.439
  315MY     H9S12369   4.927   1.821   5.421
  315MY     C1812370   4.792   1.892   5.273
  315MY     H8R12371   4.722   1.973   5.250
  315MY     H8S12372   4.877   1.889   5.205
  315MY     C1712373   4.707   1.769   5.244
  315MY     H7R12374   4.752   1.679   5.286
  315MY     H7S12375   4.609   1.777   5.290
  315MY     C1612376   4.678   1.757   5.096
  315MY     H6R12377   4.775   1.729   5.054
  315MY     H6S12378   4.609   1.675   5.074
  315MY     C1512379   4.624   1.883   5.023
  315MY     H5R12380   4.688   1.971   5.033
  315MY     H5S12381   4.618   1.852   4.918
  315MY     C1412382   4.483   1.925   5.067
  315MY     H4R12383   4.419   1.838   5.085
  315MY     H4S12384   4.490   1.982   5.160
  315MY     C1312385   4.419   2.029   4.971
  315MY     H3R12386   4.441   2.129   5.008
  315MY     H3S12387   4.463   2.021   4.871
  315MY     C1212388   4.272   2.022   4.981
  315MY     H2R12389   4.230   1.922   4.968
  315MY     H2S12390   4.238   2.053   5.080
  316MY    H14T12391   2.302   5.517   5.826
  316MY    C11412392   2.197   5.493   5.806
  316MY    H14R12393   2.152   5.492   5.905
  316MY    H14S12394   2.148   5.568   5.744
  316MY    C11312395   2.189   5.348   5.745
  316MY    H13R12396   2.250   5.280   5.804
  316MY    H13S12397   2.088   5.309   5.748
  316MY    C11212398   2.222   5.346   5.599
  316MY    H12R12399   2.251   5.244   5.573
  316MY    H12S12400   2.135   5.368   5.536
  316MY    C11112401   2.333   5.442   5.551
  316MY    H11R12402   2.298   5.545   5.557
  316MY    H11S12403   2.414   5.439   5.624
  316MY    C11012404   2.387   5.406   5.408
  316MY    H10R12405   2.307   5.385   5.337
  316MY    H10S12406   2.444   5.486   5.360
  316MY     C1912407   2.476   5.282   5.421
  316MY     H9R12408   2.554   5.310   5.493
  316MY     H9S12409   2.426   5.200   5.472
  316MY     C1812410   2.552   5.224   5.295
  316MY     H8R12411   2.477   5.182   5.226
  316MY     H8S12412   2.605   5.306   5.246
  316MY     C1712413   2.646   5.108   5.332
  316MY     H7R12414   2.685   5.142   5.428
  316MY     H7S12415   2.580   5.024   5.354
  316MY     C1612416   2.755   5.071   5.230
  316MY     H6R12417   2.712   5.057   5.131
  316MY     H6S12418   2.818   5.160   5.222
  316MY     C1512419   2.846   4.956   5.273
  316MY     H5R12420   2.918   4.954   5.191
  316MY     H5S12421   2.896   4.977   5.368
  316MY     C1412422   2.786   4.815   5.284
  316MY     H4R12423   2.867   4.750   5.319
  316MY     H4S12424   2.717   4.811   5.368
  316MY     C1312425   2.724   4.767   5.145
  316MY     H3R12426   2.643   4.835   5.117
  316MY     H3S12427   2.807   4.780   5.075
  316MY     C1212428   2.660   4.627   5.155
  316MY     H2R12429   2.741   4.559   5.181
  316MY     H2S12430   2.595   4.620   5.243
  317PC     C1112431   2.593   4.588   5.030
  317PC     O1212432   2.609   4.651   4.923
  317PC     O1112433   2.527   4.472   5.040
  317PC      C112434   2.464   4.399   4.923
  317PC      HR12435   2.396   4.325   4.965
  317PC      HS12436   2.417   4.466   4.851
  317PC      C212437   2.581   4.329   4.842
  317PC      HX12438   2.650   4.405   4.806
  317PC      C312439   2.525   4.270   4.703
  317PC      HA12440   2.610   4.242   4.640
  317PC      HB12441   2.471   4.177   4.717
  317PC     O3112442   2.445   4.372   4.628
  317PC     P3112443   2.374   4.349   4.492
  317PC     O3212444   2.491   4.362   4.380
  317PC     C3112445   2.547   4.480   4.326
  317PC     H1A12446   2.555   4.548   4.411
  317PC     H1B12447   2.652   4.477   4.292
  317PC     C3212448   2.460   4.539   4.215
  317PC     H2A12449   2.368   4.575   4.261
  317PC     H2B12450   2.510   4.630   4.181
  317PC     N3112451   2.429   4.455   4.097
  317PC     C3312452   2.556   4.419   4.014
  317PC     H3A12453   2.617   4.361   4.083
  317PC     H3B12454   2.597   4.518   3.996
  317PC     H3C12455   2.524   4.372   3.921
  317PC     C3412456   2.334   4.527   4.005
  317PC     H4A12457   2.283   4.449   3.949
  317PC     H4B12458   2.381   4.596   3.936
  317PC     H4C12459   2.260   4.581   4.064
  317PC     C3512460   2.361   4.328   4.138
  317PC     H5A12461   2.437   4.268   4.187
  317PC     H5B12462   2.322   4.278   4.049
  317PC     H5C12463   2.278   4.344   4.206
  317PC     O3312464   2.335   4.206   4.493
  317PC     O3412465   2.280   4.453   4.458
  317PC     O2112466   2.642   4.225   4.919
  317PC     C2112467   2.775   4.233   4.942
  317PC     O2212468   2.848   4.328   4.911
  318MY    H14T12469   2.427   5.033   5.642
  318MY    C11412470   2.479   4.947   5.686
  318MY    H14R12471   2.452   4.944   5.792
  318MY    H14S12472   2.438   4.854   5.648
  318MY    C11312473   2.637   4.960   5.651
  318MY    H13R12474   2.655   4.927   5.549
  318MY    H13S12475   2.678   5.061   5.652
  318MY    C11212476   2.726   4.866   5.732
  318MY    H12R12477   2.740   4.901   5.835
  318MY    H12S12478   2.678   4.768   5.739
  318MY    C11112479   2.871   4.848   5.666
  318MY    H11R12480   2.858   4.809   5.565
  318MY    H11S12481   2.927   4.939   5.643
  318MY    C11012482   2.960   4.752   5.751
  318MY    H10R12483   3.050   4.729   5.694
  318MY    H10S12484   3.010   4.809   5.830
  318MY     C1912485   2.892   4.626   5.800
  318MY     H9R12486   2.956   4.552   5.849
  318MY     H9S12487   2.813   4.651   5.871
  318MY     C1812488   2.834   4.539   5.687
  318MY     H8R12489   2.818   4.442   5.735
  318MY     H8S12490   2.739   4.573   5.644
  318MY     C1712491   2.924   4.502   5.562
  318MY     H7R12492   2.960   4.585   5.502
  318MY     H7S12493   3.008   4.449   5.606
  318MY     C1612494   2.840   4.414   5.467
  318MY     H6R12495   2.787   4.345   5.532
  318MY     H6S12496   2.755   4.474   5.432
  318MY     C1512497   2.912   4.355   5.342
  318MY     H5R12498   2.965   4.435   5.289
  318MY     H5S12499   2.978   4.275   5.375
  318MY     C1412500   2.822   4.287   5.240
  318MY     H4R12501   2.740   4.231   5.286
  318MY     H4S12502   2.781   4.373   5.185
  318MY     C1312503   2.910   4.193   5.149
  318MY     H3R12504   2.999   4.243   5.110
  318MY     H3S12505   2.948   4.110   5.208
  318MY     C1212506   2.831   4.130   5.031
  318MY     H2R12507   2.888   4.061   4.968
  318MY     H2S12508   2.752   4.069   5.074
  319MY    H14T12509   4.350   6.146   5.887
  319MY    C11412510   4.384   6.072   5.814
  319MY    H14R12511   4.483   6.107   5.785
  319MY    H14S12512   4.391   5.973   5.859
  319MY    C11312513   4.292   6.064   5.694
  319MY    H13R12514   4.320   5.972   5.641
  319MY    H13S12515   4.191   6.055   5.735
  319MY    C11212516   4.299   6.192   5.609
  319MY    H12R12517   4.241   6.173   5.519
  319MY    H12S12518   4.238   6.262   5.666
  319MY    C11112519   4.435   6.248   5.564
  319MY    H11R12520   4.417   6.350   5.527
  319MY    H11S12521   4.498   6.272   5.650
  319MY    C11012522   4.498   6.162   5.453
  319MY    H10R12523   4.601   6.195   5.444
  319MY    H10S12524   4.494   6.058   5.487
  319MY     C1912525   4.455   6.182   5.309
  319MY     H9R12526   4.507   6.104   5.252
  319MY     H9S12527   4.347   6.169   5.306
  319MY     C1812528   4.499   6.319   5.255
  319MY     H8R12529   4.457   6.403   5.312
  319MY     H8S12530   4.605   6.326   5.280
  319MY     C1712531   4.468   6.341   5.109
  319MY     H7R12532   4.360   6.349   5.097
  319MY     H7S12533   4.516   6.431   5.070
  319MY     C1612534   4.513   6.226   5.018
  319MY     H6R12535   4.449   6.138   5.020
  319MY     H6S12536   4.498   6.257   4.914
  319MY     C1512537   4.659   6.171   5.022
  319MY     H5R12538   4.718   6.260   4.998
  319MY     H5S12539   4.690   6.132   5.119
  319MY     C1412540   4.694   6.052   4.933
  319MY     H4R12541   4.801   6.031   4.936
  319MY     H4S12542   4.635   5.970   4.976
  319MY     C1312543   4.651   6.052   4.786
  319MY     H3R12544   4.545   6.075   4.770
  319MY     H3S12545   4.705   6.132   4.735
  319MY     C1212546   4.671   5.907   4.731
  319MY     H2R12547   4.764   5.861   4.765
  319MY     H2S12548   4.593   5.840   4.767
  320PC     C1112549   4.674   5.893   4.586
  320PC     O1212550   4.776   5.862   4.530
  320PC     O1112551   4.563   5.929   4.522
  320PC      C112552   4.554   5.893   4.384
  320PC      HR12553   4.477   5.945   4.327
  320PC      HS12554   4.645   5.903   4.323
  320PC      C212555   4.496   5.751   4.384
  320PC      HX12556   4.563   5.685   4.439
  320PC      C312557   4.478   5.711   4.232
  320PC      HA12558   4.580   5.698   4.195
  320PC      HB12559   4.423   5.618   4.212
  320PC     O3112560   4.426   5.820   4.142
  320PC     P3112561   4.466   5.831   3.986
  320PC     O3212562   4.371   5.731   3.912
  320PC     C3112563   4.424   5.603   3.861
  320PC     H1A12564   4.517   5.574   3.912
  320PC     H1B12565   4.347   5.525   3.862
  320PC     C3212566   4.456   5.631   3.713
  320PC     H2A12567   4.372   5.689   3.675
  320PC     H2B12568   4.550   5.687   3.707
  320PC     N3112569   4.474   5.515   3.625
  320PC     C3312570   4.599   5.454   3.671
  320PC     H3A12571   4.663   5.524   3.723
  320PC     H3B12572   4.640   5.417   3.577
  320PC     H3C12573   4.564   5.380   3.744
  320PC     C3412574   4.490   5.561   3.481
  320PC     H4A12575   4.552   5.650   3.485
  320PC     H4B12576   4.384   5.577   3.459
  320PC     H4C12577   4.534   5.481   3.421
  320PC     C3512578   4.357   5.417   3.634
  320PC     H5A12579   4.264   5.458   3.594
  320PC     H5B12580   4.348   5.392   3.740
  320PC     H5C12581   4.397   5.334   3.576
  320PC     O3312582   4.428   5.963   3.939
  320PC     O3412583   4.606   5.795   3.974
  320PC     O2112584   4.361   5.746   4.448
  320PC     C2112585   4.309   5.634   4.491
  320PC     O2212586   4.373   5.534   4.483
  321MY    H14T12587   3.994   5.511   5.665
  321MY    C11412588   4.038   5.611   5.668
  321MY    H14R12589   3.974   5.675   5.729
  321MY    H14S12590   4.137   5.614   5.714
  321MY    C11312591   4.061   5.681   5.527
  321MY    H13R12592   4.122   5.618   5.462
  321MY    H13S12593   3.963   5.704   5.484
  321MY    C11212594   4.143   5.814   5.543
  321MY    H12R12595   4.098   5.877   5.619
  321MY    H12S12596   4.235   5.768   5.582
  321MY    C11112597   4.162   5.897   5.410
  321MY    H11R12598   4.236   5.977   5.422
  321MY    H11S12599   4.193   5.830   5.330
  321MY    C11012600   4.030   5.971   5.367
  321MY    H10R12601   3.948   5.906   5.336
  321MY    H10S12602   3.992   6.028   5.452
  321MY     C1912603   4.057   6.067   5.248
  321MY     H9R12604   3.969   6.128   5.226
  321MY     H9S12605   4.129   6.144   5.276
  321MY     C1812606   4.106   5.998   5.123
  321MY     H8R12607   4.197   5.942   5.149
  321MY     H8S12608   4.025   5.934   5.087
  321MY     C1712609   4.148   6.087   5.003
  321MY     H7R12610   4.061   6.140   4.964
  321MY     H7S12611   4.232   6.146   5.040
  321MY     C1612612   4.204   6.011   4.879
  321MY     H6R12613   4.209   6.086   4.800
  321MY     H6S12614   4.307   5.993   4.910
  321MY     C1512615   4.126   5.889   4.844
  321MY     H5R12616   4.127   5.812   4.922
  321MY     H5S12617   4.025   5.928   4.828
  321MY     C1412618   4.177   5.833   4.711
  321MY     H4R12619   4.126   5.892   4.635
  321MY     H4S12620   4.282   5.855   4.686
  321MY     C1312621   4.158   5.681   4.690
  321MY     H3R12622   4.222   5.621   4.755
  321MY     H3S12623   4.061   5.651   4.730
  321MY     C1212624   4.167   5.641   4.539
  321MY     H2R12625   4.125   5.541   4.526
  321MY     H2S12626   4.112   5.715   4.480
  322MY    H14T12627   0.629   3.197   5.798
  322MY    C11412628   0.569   3.234   5.882
  322MY    H14R12629   0.465   3.206   5.863
  322MY    H14S12630   0.609   3.180   5.967
  322MY    C11312631   0.583   3.383   5.901
  322MY    H13R12632   0.534   3.421   5.991
  322MY    H13S12633   0.691   3.400   5.902
  322MY    C11212634   0.525   3.463   5.778
  322MY    H12R12635   0.595   3.445   5.696
  322MY    H12S12636   0.428   3.424   5.746
  322MY    C11112637   0.497   3.614   5.800
  322MY    H11R12638   0.416   3.628   5.872
  322MY    H11S12639   0.581   3.648   5.861
  322MY    C11012640   0.489   3.702   5.675
  322MY    H10R12641   0.469   3.805   5.708
  322MY    H10S12642   0.587   3.692   5.629
  322MY     C1912643   0.371   3.651   5.576
  322MY     H9R12644   0.377   3.542   5.572
  322MY     H9S12645   0.274   3.678   5.618
  322MY     C1812646   0.382   3.721   5.436
  322MY     H8R12647   0.342   3.822   5.440
  322MY     H8S12648   0.483   3.733   5.397
  322MY     C1712649   0.313   3.637   5.324
  322MY     H7R12650   0.320   3.693   5.231
  322MY     H7S12651   0.358   3.540   5.302
  322MY     C1612652   0.160   3.616   5.343
  322MY     H6R12653   0.159   3.541   5.422
  322MY     H6S12654   0.107   3.702   5.385
  322MY     C1512655   0.089   3.571   5.219
  322MY     H5R12656   0.124   3.628   5.132
  322MY     H5S12657   0.123   3.469   5.198
  322MY     C1412658  -0.064   3.576   5.219
  322MY     H4R12659  -0.081   3.506   5.301
  322MY     H4S12660  -0.099   3.677   5.242
  322MY     C1312661  -0.118   3.516   5.086
  322MY     H3R12662  -0.063   3.427   5.056
  322MY     H3S12663  -0.223   3.488   5.097
  322MY     C1212664  -0.085   3.616   4.971
  322MY     H2R12665  -0.134   3.711   4.996
  322MY     H2S12666   0.022   3.624   4.956
  323PC     C1112667  -0.153   3.567   4.849
  323PC     O1212668  -0.086   3.513   4.764
  323PC     O1112669  -0.281   3.594   4.846
  323PC      C112670  -0.348   3.572   4.720
  323PC      HR12671  -0.294   3.634   4.648
  323PC      HS12672  -0.344   3.471   4.678
  323PC      C212673  -0.490   3.621   4.724
  323PC      HX12674  -0.537   3.545   4.787
  323PC      C312675  -0.560   3.619   4.582
  323PC      HA12676  -0.601   3.522   4.553
  323PC      HB12677  -0.648   3.682   4.573
  323PC     O3112678  -0.467   3.656   4.483
  323PC     P3112679  -0.514   3.636   4.329
  323PC     O3212680  -0.476   3.482   4.312
  323PC     C3112681  -0.351   3.442   4.264
  323PC     H1A12682  -0.367   3.353   4.202
  323PC     H1B12683  -0.296   3.511   4.199
  323PC     C3212684  -0.282   3.401   4.390
  323PC     H2A12685  -0.264   3.492   4.448
  323PC     H2B12686  -0.354   3.337   4.440
  323PC     N3112687  -0.147   3.332   4.382
  323PC     C3312688  -0.110   3.284   4.520
  323PC     H3A12689  -0.073   3.373   4.569
  323PC     H3B12690  -0.028   3.212   4.521
  323PC     H3C12691  -0.201   3.246   4.567
  323PC     C3412692  -0.053   3.437   4.333
  323PC     H4A12693  -0.097   3.472   4.239
  323PC     H4B12694   0.045   3.390   4.319
  323PC     H4C12695  -0.040   3.514   4.409
  323PC     C3512696  -0.135   3.214   4.285
  323PC     H5A12697  -0.230   3.162   4.301
  323PC     H5B12698  -0.047   3.155   4.310
  323PC     H5C12699  -0.127   3.250   4.183
  323PC     O3312700  -0.659   3.641   4.316
  323PC     O3412701  -0.429   3.713   4.242
  323PC     O2112702  -0.504   3.751   4.792
  323PC     C2112703  -0.607   3.768   4.872
  323PC     O2212704  -0.687   3.682   4.885
  324MY    H14T12705  -0.886   3.802   5.678
  324MY    C11412706  -0.804   3.814   5.749
  324MY    H14R12707  -0.843   3.797   5.850
  324MY    H14S12708  -0.725   3.740   5.734
  324MY    C11312709  -0.758   3.959   5.737
  324MY    H13R12710  -0.667   3.980   5.795
  324MY    H13S12711  -0.744   3.985   5.632
  324MY    C11212712  -0.867   4.054   5.795
  324MY    H12R12713  -0.858   4.053   5.904
  324MY    H12S12714  -0.837   4.157   5.777
  324MY    C11112715  -1.009   4.038   5.749
  324MY    H11R12716  -1.046   3.941   5.781
  324MY    H11S12717  -1.080   4.106   5.797
  324MY    C11012718  -1.049   4.049   5.598
  324MY    H10R12719  -1.034   3.956   5.543
  324MY    H10S12720  -1.157   4.060   5.601
  324MY     C1912721  -1.000   4.171   5.517
  324MY     H9R12722  -1.006   4.262   5.578
  324MY     H9S12723  -0.894   4.158   5.495
  324MY     C1812724  -1.066   4.200   5.385
  324MY     H8R12725  -1.167   4.238   5.407
  324MY     H8S12726  -1.019   4.285   5.335
  324MY     C1712727  -1.079   4.073   5.290
  324MY     H7R12728  -1.140   3.992   5.331
  324MY     H7S12729  -1.131   4.109   5.202
  324MY     C1612730  -0.947   4.011   5.253
  324MY     H6R12731  -0.912   3.963   5.345
  324MY     H6S12732  -0.967   3.928   5.185
  324MY     C1512733  -0.838   4.098   5.193
  324MY     H5R12734  -0.880   4.158   5.112
  324MY     H5S12735  -0.814   4.169   5.272
  324MY     C1412736  -0.715   4.026   5.136
  324MY     H4R12737  -0.635   4.098   5.121
  324MY     H4S12738  -0.679   3.948   5.204
  324MY     C1312739  -0.740   3.946   4.999
  324MY     H3R12740  -0.789   3.858   5.041
  324MY     H3S12741  -0.810   4.003   4.937
  324MY     C1212742  -0.608   3.906   4.933
  324MY     H2R12743  -0.589   3.981   4.856
  324MY     H2S12744  -0.519   3.905   4.996
  325MY    H14T12745   0.950   4.218   6.243
  325MY    C11412746   0.919   4.159   6.156
  325MY    H14R12747   0.923   4.053   6.179
  325MY    H14S12748   0.813   4.181   6.147
  325MY    C11312749   0.991   4.200   6.028
  325MY    H13R12750   1.096   4.169   6.033
  325MY    H13S12751   0.953   4.142   5.944
  325MY    C11212752   0.994   4.353   6.007
  325MY    H12R12753   0.891   4.388   5.997
  325MY    H12S12754   1.039   4.395   6.097
  325MY    C11112755   1.064   4.411   5.886
  325MY    H11R12756   1.164   4.370   5.871
  325MY    H11S12757   1.008   4.379   5.798
  325MY    C11012758   1.065   4.566   5.900
  325MY    H10R12759   0.966   4.602   5.931
  325MY    H10S12760   1.139   4.600   5.972
  325MY     C1912761   1.102   4.635   5.768
  325MY     H9R12762   1.108   4.742   5.793
  325MY     H9S12763   1.204   4.607   5.741
  325MY     C1812764   1.007   4.610   5.653
  325MY     H8R12765   1.017   4.508   5.616
  325MY     H8S12766   0.903   4.622   5.686
  325MY     C1712767   1.034   4.711   5.544
  325MY     H7R12768   1.079   4.802   5.584
  325MY     H7S12769   1.098   4.677   5.463
  325MY     C1612770   0.911   4.754   5.469
  325MY     H6R12771   0.870   4.666   5.418
  325MY     H6S12772   0.831   4.793   5.532
  325MY     C1512773   0.940   4.863   5.361
  325MY     H5R12774   0.978   4.953   5.410
  325MY     H5S12775   1.012   4.818   5.292
  325MY     C1412776   0.804   4.906   5.293
  325MY     H4R12777   0.767   4.827   5.226
  325MY     H4S12778   0.720   4.914   5.362
  325MY     C1312779   0.810   5.041   5.214
  325MY     H3R12780   0.815   5.133   5.274
  325MY     H3S12781   0.902   5.031   5.155
  325MY     C1212782   0.695   5.039   5.110
  325MY     H2R12783   0.703   4.953   5.042
  325MY     H2S12784   0.609   5.027   5.176
  326PC     C1112785   0.678   5.159   5.026
  326PC     O1212786   0.773   5.236   5.007
  326PC     O1112787   0.558   5.175   4.964
  326PC      C112788   0.538   5.285   4.874
  326PC      HR12789   0.519   5.377   4.931
  326PC      HS12790   0.629   5.285   4.814
  326PC      C212791   0.416   5.250   4.787
  326PC      HX12792   0.443   5.155   4.739
  326PC      C312793   0.379   5.361   4.681
  326PC      HA12794   0.431   5.350   4.585
  326PC      HB12795   0.273   5.351   4.656
  326PC     O3112796   0.382   5.488   4.747
  326PC     P3112797   0.489   5.602   4.725
  326PC     O3212798   0.431   5.675   4.593
  326PC     C3112799   0.427   5.606   4.468
  326PC     H1A12800   0.515   5.545   4.446
  326PC     H1B12801   0.342   5.538   4.473
  326PC     C3212802   0.384   5.717   4.366
  326PC     H2A12803   0.336   5.678   4.276
  326PC     H2B12804   0.310   5.780   4.416
  326PC     N3112805   0.497   5.796   4.317
  326PC     C3312806   0.440   5.913   4.251
  326PC     H3A12807   0.520   5.977   4.212
  326PC     H3B12808   0.390   5.972   4.328
  326PC     H3C12809   0.371   5.888   4.171
  326PC     C3412810   0.565   5.715   4.221
  326PC     H4A12811   0.495   5.666   4.154
  326PC     H4B12812   0.638   5.648   4.268
  326PC     H4C12813   0.631   5.782   4.166
  326PC     C3512814   0.599   5.847   4.414
  326PC     H5A12815   0.548   5.905   4.491
  326PC     H5B12816   0.677   5.897   4.357
  326PC     H5C12817   0.653   5.760   4.452
  326PC     O3312818   0.470   5.679   4.850
  326PC     O3412819   0.617   5.530   4.692
  326PC     O2112820   0.307   5.239   4.883
  326PC     C2112821   0.289   5.118   4.948
  326PC     O2212822   0.336   5.014   4.902
  327MY    H14T12823   0.864   5.286   6.001
  327MY    C11412824   0.884   5.389   5.969
  327MY    H14R12825   0.797   5.449   5.943
  327MY    H14S12826   0.935   5.438   6.052
  327MY    C11312827   0.987   5.376   5.856
  327MY    H13R12828   0.985   5.472   5.803
  327MY    H13S12829   1.087   5.363   5.897
  327MY    C11212830   0.956   5.271   5.754
  327MY    H12R12831   1.038   5.275   5.683
  327MY    H12S12832   0.962   5.171   5.798
  327MY    C11112833   0.826   5.290   5.680
  327MY    H11R12834   0.742   5.269   5.746
  327MY    H11S12835   0.824   5.396   5.652
  327MY    C11012836   0.815   5.201   5.551
  327MY    H10R12837   0.897   5.215   5.480
  327MY    H10S12838   0.828   5.098   5.585
  327MY     C1912839   0.673   5.206   5.489
  327MY     H9R12840   0.664   5.136   5.405
  327MY     H9S12841   0.594   5.179   5.559
  327MY     C1812842   0.660   5.349   5.423
  327MY     H8R12843   0.661   5.418   5.508
  327MY     H8S12844   0.743   5.371   5.355
  327MY     C1712845   0.525   5.344   5.345
  327MY     H7R12846   0.511   5.446   5.309
  327MY     H7S12847   0.533   5.267   5.269
  327MY     C1612848   0.402   5.306   5.437
  327MY     H6R12849   0.403   5.204   5.476
  327MY     H6S12850   0.405   5.361   5.531
  327MY     C1512851   0.267   5.342   5.369
  327MY     H5R12852   0.207   5.368   5.457
  327MY     H5S12853   0.272   5.419   5.292
  327MY     C1412854   0.213   5.223   5.297
  327MY     H4R12855   0.201   5.144   5.372
  327MY     H4S12856   0.113   5.239   5.256
  327MY     C1312857   0.291   5.172   5.178
  327MY     H3R12858   0.341   5.259   5.135
  327MY     H3S12859   0.369   5.096   5.192
  327MY     C1212860   0.198   5.119   5.071
  327MY     H2R12861   0.179   5.014   5.095
  327MY     H2S12862   0.108   5.178   5.053
  328MY    H14T12863   1.719   1.729   5.932
  328MY    C11412864   1.700   1.785   5.840
  328MY    H14R12865   1.681   1.888   5.870
  328MY    H14S12866   1.798   1.789   5.792
  328MY    C11312867   1.598   1.722   5.745
  328MY    H13R12868   1.499   1.749   5.782
  328MY    H13S12869   1.605   1.772   5.649
  328MY    C11212870   1.620   1.569   5.730
  328MY    H12R12871   1.711   1.561   5.669
  328MY    H12S12872   1.642   1.517   5.823
  328MY    C11112873   1.508   1.488   5.663
  328MY    H11R12874   1.544   1.386   5.650
  328MY    H11S12875   1.418   1.475   5.724
  328MY    C11012876   1.454   1.540   5.534
  328MY    H10R12877   1.389   1.462   5.495
  328MY    H10S12878   1.393   1.629   5.550
  328MY     C1912879   1.563   1.573   5.421
  328MY     H9R12880   1.514   1.636   5.346
  328MY     H9S12881   1.638   1.636   5.469
  328MY     C1812882   1.619   1.444   5.367
  328MY     H8R12883   1.704   1.414   5.430
  328MY     H8S12884   1.556   1.355   5.374
  328MY     C1712885   1.667   1.445   5.218
  328MY     H7R12886   1.737   1.363   5.202
  328MY     H7S12887   1.579   1.439   5.153
  328MY     C1612888   1.754   1.573   5.182
  328MY     H6R12889   1.695   1.659   5.212
  328MY     H6S12890   1.842   1.579   5.247
  328MY     C1512891   1.798   1.591   5.034
  328MY     H5R12892   1.708   1.611   4.977
  328MY     H5S12893   1.857   1.683   5.046
  328MY     C1412894   1.890   1.474   4.969
  328MY     H4R12895   1.856   1.383   5.019
  328MY     H4S12896   1.875   1.473   4.860
  328MY     C1312897   2.035   1.494   5.011
  328MY     H3R12898   2.069   1.581   4.954
  328MY     H3S12899   2.035   1.513   5.118
  328MY     C1212900   2.121   1.367   4.980
  328MY     H2R12901   2.220   1.378   5.025
  328MY     H2S12902   2.078   1.278   5.028
  329PC     C1112903   2.139   1.340   4.830
  329PC     O1212904   2.093   1.402   4.736
  329PC     O1112905   2.212   1.228   4.823
  329PC      C112906   2.264   1.189   4.689
  329PC      HR12907   2.269   1.080   4.684
  329PC      HS12908   2.196   1.216   4.608
  329PC      C212909   2.400   1.260   4.663
  329PC      HX12910   2.382   1.368   4.665
  329PC      C312911   2.458   1.203   4.536
  329PC      HA12912   2.566   1.218   4.534
  329PC      HB12913   2.443   1.095   4.530
  329PC     O3112914   2.400   1.253   4.411
  329PC     P3112915   2.476   1.318   4.301
  329PC     O3212916   2.538   1.199   4.211
  329PC     C3112917   2.450   1.121   4.126
  329PC     H1A12918   2.427   1.025   4.173
  329PC     H1B12919   2.359   1.177   4.103
  329PC     C3212920   2.538   1.110   3.996
  329PC     H2A12921   2.544   1.204   3.941
  329PC     H2B12922   2.641   1.080   4.010
  329PC     N3112923   2.481   1.004   3.905
  329PC     C3312924   2.327   1.011   3.885
  329PC     H3A12925   2.300   1.115   3.869
  329PC     H3B12926   2.283   0.977   3.979
  329PC     H3C12927   2.289   0.948   3.805
  329PC     C3412928   2.518   0.870   3.971
  329PC     H4A12929   2.467   0.790   3.918
  329PC     H4B12930   2.485   0.869   4.074
  329PC     H4C12931   2.626   0.857   3.958
  329PC     C3512932   2.539   1.019   3.770
  329PC     H5A12933   2.531   1.124   3.742
  329PC     H5B12934   2.485   0.955   3.700
  329PC     H5C12935   2.639   0.976   3.767
  329PC     O3312936   2.389   1.396   4.218
  329PC     O3412937   2.587   1.390   4.360
  329PC     O2112938   2.492   1.232   4.773
  329PC     C2112939   2.513   1.318   4.872
  329PC     O2212940   2.461   1.427   4.879
  330MY    H14T12941   2.589   1.039   6.180
  330MY    C11412942   2.502   1.069   6.238
  330MY    H14R12943   2.443   0.988   6.280
  330MY    H14S12944   2.542   1.123   6.324
  330MY    C11312945   2.404   1.163   6.165
  330MY    H13R12946   2.335   1.209   6.237
  330MY    H13S12947   2.442   1.252   6.113
  330MY    C11212948   2.310   1.075   6.077
  330MY    H12R12949   2.251   1.020   6.150
  330MY    H12S12950   2.242   1.143   6.026
  330MY    C11112951   2.373   0.971   5.978
  330MY    H11R12952   2.453   0.918   6.031
  330MY    H11S12953   2.294   0.900   5.955
  330MY    C11012954   2.438   1.028   5.848
  330MY    H10R12955   2.365   1.084   5.789
  330MY    H10S12956   2.511   1.105   5.874
  330MY     C1912957   2.499   0.906   5.771
  330MY     H9R12958   2.563   0.849   5.839
  330MY     H9S12959   2.422   0.835   5.738
  330MY     C1812960   2.589   0.951   5.654
  330MY     H8R12961   2.643   1.037   5.694
  330MY     H8S12962   2.645   0.862   5.624
  330MY     C1712963   2.512   1.017   5.545
  330MY     H7R12964   2.433   0.948   5.514
  330MY     H7S12965   2.468   1.109   5.584
  330MY     C1612966   2.611   1.048   5.432
  330MY     H6R12967   2.706   1.088   5.469
  330MY     H6S12968   2.630   0.954   5.379
  330MY     C1512969   2.535   1.139   5.328
  330MY     H5R12970   2.439   1.100   5.294
  330MY     H5S12971   2.509   1.230   5.383
  330MY     C1412972   2.627   1.176   5.211
  330MY     H4R12973   2.691   1.263   5.230
  330MY     H4S12974   2.697   1.095   5.186
  330MY     C1312975   2.534   1.228   5.097
  330MY     H3R12976   2.454   1.158   5.071
  330MY     H3S12977   2.482   1.316   5.136
  330MY     C1212978   2.608   1.268   4.970
  330MY     H2R12979   2.679   1.350   4.987
  330MY     H2S12980   2.677   1.187   4.947
  331MY    H14T12981   4.244   1.476   6.216
  331MY    C11412982   4.135   1.483   6.218
  331MY    H14R12983   4.103   1.428   6.129
  331MY    H14S12984   4.106   1.419   6.301
  331MY    C11312985   4.079   1.628   6.227
  331MY    H13R12986   3.975   1.621   6.197
  331MY    H13S12987   4.087   1.666   6.329
  331MY    C11212988   4.137   1.724   6.123
  331MY    H12R12989   4.096   1.825   6.131
  331MY    H12S12990   4.243   1.731   6.149
  331MY    C11112991   4.124   1.661   5.987
  331MY    H11R12992   4.172   1.563   5.982
  331MY    H11S12993   4.020   1.635   5.963
  331MY    C11012994   4.199   1.748   5.886
  331MY    H10R12995   4.296   1.768   5.933
  331MY    H10S12996   4.213   1.693   5.793
  331MY     C1912997   4.122   1.879   5.852
  331MY     H9R12998   4.025   1.853   5.809
  331MY     H9S12999   4.093   1.933   5.942
  331MY     C1813000   4.185   1.969   5.737
  331MY     H8R13001   4.105   2.038   5.708
  331MY     H8S13002   4.262   2.034   5.779
  331MY     C1713003   4.232   1.886   5.616
  331MY     H7R13004   4.286   1.952   5.548
  331MY     H7S13005   4.285   1.796   5.650
  331MY     C1613006   4.117   1.837   5.521
  331MY     H6R13007   4.059   1.769   5.585
  331MY     H6S13008   4.056   1.926   5.503
  331MY     C1513009   4.155   1.754   5.396
  331MY     H5R13010   4.227   1.809   5.335
  331MY     H5S13011   4.211   1.665   5.427
  331MY     C1413012   4.028   1.710   5.314
  331MY     H4R13013   3.968   1.652   5.385
  331MY     H4S13014   3.967   1.794   5.281
  331MY     C1313015   4.056   1.632   5.184
  331MY     H3R13016   4.129   1.555   5.209
  331MY     H3S13017   3.961   1.596   5.146
  331MY     C1213018   4.123   1.718   5.087
  331MY     H2R13019   4.065   1.809   5.070
  331MY     H2S13020   4.223   1.744   5.123
  332PC     C1113021   4.145   1.654   4.946
  332PC     O1213022   4.178   1.541   4.930
  332PC     O1113023   4.136   1.739   4.844
  332PC      C113024   4.126   1.690   4.704
  332PC      HR13025   4.111   1.781   4.645
  332PC      HS13026   4.220   1.640   4.677
  332PC      C213027   4.002   1.598   4.672
  332PC      HX13028   4.004   1.505   4.730
  332PC      C313029   3.989   1.551   4.523
  332PC      HA13030   4.074   1.485   4.507
  332PC      HB13031   3.890   1.504   4.519
  332PC     O3113032   3.987   1.669   4.440
  332PC     P3113033   4.124   1.712   4.361
  332PC     O3213034   4.137   1.615   4.244
  332PC     C3113035   4.037   1.590   4.141
  332PC     H1A13036   4.012   1.483   4.134
  332PC     H1B13037   3.947   1.646   4.167
  332PC     C3213038   4.082   1.650   4.008
  332PC     H2A13039   4.086   1.758   4.016
  332PC     H2B13040   4.188   1.626   3.994
  332PC     N3113041   4.009   1.611   3.882
  332PC     C3313042   3.875   1.670   3.880
  332PC     H3A13043   3.832   1.666   3.780
  332PC     H3B13044   3.890   1.774   3.909
  332PC     H3C13045   3.822   1.624   3.963
  332PC     C3413046   4.006   1.457   3.884
  332PC     H4A13047   3.978   1.420   3.785
  332PC     H4B13048   3.939   1.421   3.962
  332PC     H4C13049   4.103   1.419   3.916
  332PC     C3513050   4.077   1.661   3.764
  332PC     H5A13051   4.025   1.614   3.681
  332PC     H5B13052   4.182   1.634   3.757
  332PC     H5C13053   4.062   1.768   3.751
  332PC     O3313054   4.104   1.842   4.294
  332PC     O3413055   4.238   1.684   4.448
  332PC     O2113056   3.880   1.681   4.697
  332PC     C2113057   3.819   1.657   4.816
  332PC     O2213058   3.837   1.565   4.894
  333MY    H14T13059   3.301   2.423   6.011
  333MY    C11413060   3.385   2.484   6.043
  333MY    H14R13061   3.355   2.589   6.032
  333MY    H14S13062   3.415   2.472   6.147
  333MY    C11313063   3.510   2.455   5.950
  333MY    H13R13064   3.563   2.550   5.940
  333MY    H13S13065   3.575   2.382   6.000
  333MY    C11213066   3.478   2.404   5.814
  333MY    H12R13067   3.402   2.329   5.836
  333MY    H12S13068   3.424   2.480   5.759
  333MY    C11113069   3.603   2.337   5.746
  333MY    H11R13070   3.675   2.416   5.720
  333MY    H11S13071   3.650   2.257   5.804
  333MY    C11013072   3.565   2.265   5.612
  333MY    H10R13073   3.494   2.193   5.653
  333MY    H10S13074   3.516   2.332   5.542
  333MY     C1913075   3.689   2.204   5.531
  333MY     H9R13076   3.760   2.288   5.534
  333MY     H9S13077   3.734   2.117   5.580
  333MY     C1813078   3.662   2.186   5.382
  333MY     H8R13079   3.581   2.114   5.369
  333MY     H8S13080   3.626   2.281   5.342
  333MY     C1713081   3.788   2.147   5.299
  333MY     H7R13082   3.851   2.236   5.292
  333MY     H7S13083   3.840   2.065   5.350
  333MY     C1613084   3.748   2.093   5.162
  333MY     H6R13085   3.707   2.180   5.109
  333MY     H6S13086   3.833   2.056   5.104
  333MY     C1513087   3.640   1.982   5.159
  333MY     H5R13088   3.676   1.907   5.229
  333MY     H5S13089   3.548   2.019   5.206
  333MY     C1413090   3.629   1.923   5.019
  333MY     H4R13091   3.540   1.861   5.029
  333MY     H4S13092   3.603   1.999   4.946
  333MY     C1313093   3.748   1.836   4.975
  333MY     H3R13094   3.838   1.893   4.953
  333MY     H3S13095   3.782   1.765   5.051
  333MY     C1213096   3.716   1.761   4.844
  333MY     H2R13097   3.618   1.713   4.837
  333MY     H2S13098   3.712   1.837   4.766
  334MY    H14T13099   4.203   2.623   6.006
  334MY    C11413100   4.237   2.605   6.108
  334MY    H14R13101   4.160   2.650   6.172
  334MY    H14S13102   4.225   2.497   6.123
  334MY    C11313103   4.384   2.654   6.137
  334MY    H13R13104   4.392   2.762   6.125
  334MY    H13S13105   4.407   2.643   6.244
  334MY    C11213106   4.479   2.581   6.049
  334MY    H12R13107   4.435   2.587   5.948
  334MY    H12S13108   4.574   2.631   6.032
  334MY    C11113109   4.514   2.435   6.090
  334MY    H11R13110   4.519   2.450   6.198
  334MY    H11S13111   4.434   2.365   6.066
  334MY    C11013112   4.639   2.381   6.035
  334MY    H10R13113   4.717   2.445   6.076
  334MY    H10S13114   4.662   2.283   6.076
  334MY     C1913115   4.640   2.379   5.886
  334MY     H9R13116   4.636   2.484   5.855
  334MY     H9S13117   4.732   2.334   5.848
  334MY     C1813118   4.524   2.299   5.811
  334MY     H8R13119   4.550   2.193   5.813
  334MY     H8S13120   4.425   2.315   5.854
  334MY     C1713121   4.505   2.326   5.666
  334MY     H7R13122   4.437   2.251   5.625
  334MY     H7S13123   4.471   2.429   5.648
  334MY     C1613124   4.638   2.302   5.596
  334MY     H6R13125   4.703   2.388   5.614
  334MY     H6S13126   4.689   2.214   5.635
  334MY     C1513127   4.611   2.291   5.446
  334MY     H5R13128   4.550   2.204   5.420
  334MY     H5S13129   4.552   2.379   5.419
  334MY     C1413130   4.735   2.273   5.362
  334MY     H4R13131   4.812   2.344   5.393
  334MY     H4S13132   4.780   2.177   5.392
  334MY     C1313133   4.707   2.279   5.209
  334MY     H3R13134   4.633   2.208   5.171
  334MY     H3S13135   4.676   2.381   5.186
  334MY     C1213136   4.838   2.270   5.136
  334MY     H2R13137   4.919   2.329   5.179
  334MY     H2S13138   4.869   2.165   5.132
  335PC     C1113139   4.820   2.303   4.986
  335PC     O1213140   4.714   2.330   4.933
  335PC     O1113141   4.942   2.304   4.921
  335PC      C113142   4.967   2.350   4.787
  335PC      HR13143   5.070   2.317   4.769
  335PC      HS13144   4.890   2.305   4.723
  335PC      C213145   4.967   2.503   4.785
  335PC      HX13146   4.877   2.540   4.835
  335PC      C313147   4.966   2.563   4.639
  335PC      HA13148   4.861   2.587   4.619
  335PC      HB13149   5.026   2.654   4.634
  335PC     O3113150   5.027   2.479   4.541
  335PC     P3113151   4.971   2.475   4.396
  335PC     O3213152   4.859   2.361   4.405
  335PC     C3113153   4.730   2.398   4.456
  335PC     H1A13154   4.737   2.419   4.563
  335PC     H1B13155   4.687   2.483   4.403
  335PC     C3213156   4.635   2.276   4.428
  335PC     H2A13157   4.656   2.203   4.507
  335PC     H2B13158   4.530   2.302   4.447
  335PC     N3113159   4.631   2.205   4.295
  335PC     C3313160   4.505   2.116   4.293
  335PC     H3A13161   4.522   2.035   4.365
  335PC     H3B13162   4.488   2.071   4.195
  335PC     H3C13163   4.422   2.179   4.325
  335PC     C3413164   4.747   2.122   4.267
  335PC     H4A13165   4.763   2.058   4.354
  335PC     H4B13166   4.832   2.190   4.272
  335PC     H4C13167   4.741   2.070   4.171
  335PC     C3513168   4.626   2.307   4.190
  335PC     H5A13169   4.545   2.376   4.217
  335PC     H5B13170   4.596   2.259   4.097
  335PC     H5C13171   4.724   2.353   4.182
  335PC     O3313172   4.907   2.607   4.370
  335PC     O3413173   5.079   2.429   4.305
  335PC     O2113174   5.086   2.554   4.854
  335PC     C2113175   5.089   2.552   4.988
  335PC     O2213176   4.994   2.526   5.062
  336MY    H14T13177   5.723   3.898   5.552
  336MY    C11413178   5.721   3.885   5.443
  336MY    H14R13179   5.681   3.977   5.400
  336MY    H14S13180   5.824   3.871   5.410
  336MY    C11313181   5.641   3.768   5.387
  336MY    H13R13182   5.607   3.704   5.468
  336MY    H13S13183   5.542   3.803   5.359
  336MY    C11213184   5.695   3.687   5.267
  336MY    H12R13185   5.732   3.751   5.185
  336MY    H12S13186   5.778   3.642   5.323
  336MY    C11113187   5.588   3.582   5.210
  336MY    H11R13188   5.490   3.627   5.193
  336MY    H11S13189   5.625   3.552   5.112
  336MY    C11013190   5.564   3.456   5.298
  336MY    H10R13191   5.656   3.401   5.322
  336MY    H10S13192   5.525   3.488   5.395
  336MY     C1913193   5.464   3.358   5.244
  336MY     H9R13194   5.373   3.399   5.199
  336MY     H9S13195   5.519   3.314   5.160
  336MY     C1813196   5.418   3.256   5.356
  336MY     H8R13197   5.507   3.213   5.403
  336MY     H8S13198   5.360   3.301   5.437
  336MY     C1713199   5.324   3.140   5.296
  336MY     H7R13200   5.291   3.077   5.379
  336MY     H7S13201   5.235   3.180   5.247
  336MY     C1613202   5.386   3.043   5.191
  336MY     H6R13203   5.420   3.098   5.104
  336MY     H6S13204   5.478   3.002   5.234
  336MY     C1513205   5.285   2.935   5.148
  336MY     H5R13206   5.256   2.866   5.228
  336MY     H5S13207   5.191   2.985   5.121
  336MY     C1413208   5.345   2.850   5.041
  336MY     H4R13209   5.380   2.913   4.959
  336MY     H4S13210   5.434   2.799   5.079
  336MY     C1313211   5.226   2.761   4.984
  336MY     H3R13212   5.128   2.808   4.996
  336MY     H3S13213   5.240   2.753   4.876
  336MY     C1213214   5.214   2.620   5.035
  336MY     H2R13215   5.303   2.567   5.000
  336MY     H2S13216   5.210   2.613   5.144
  337MY    H14T13217   2.342   2.765   6.325
  337MY    C11413218   2.401   2.801   6.241
  337MY    H14R13219   2.481   2.869   6.271
  337MY    H14S13220   2.458   2.722   6.190
  337MY    C11313221   2.313   2.886   6.143
  337MY    H13R13222   2.243   2.817   6.096
  337MY    H13S13223   2.272   2.967   6.204
  337MY    C11213224   2.388   2.968   6.031
  337MY    H12R13225   2.451   3.037   6.088
  337MY    H12S13226   2.452   2.898   5.976
  337MY    C11113227   2.297   3.033   5.924
  337MY    H11R13228   2.245   2.949   5.878
  337MY    H11S13229   2.217   3.094   5.966
  337MY    C11013230   2.377   3.118   5.824
  337MY    H10R13231   2.396   3.218   5.863
  337MY    H10S13232   2.474   3.076   5.794
  337MY     C1913233   2.300   3.136   5.696
  337MY     H9R13234   2.301   3.046   5.635
  337MY     H9S13235   2.201   3.167   5.729
  337MY     C1813236   2.363   3.250   5.606
  337MY     H8R13237   2.417   3.325   5.665
  337MY     H8S13238   2.445   3.212   5.545
  337MY     C1713239   2.268   3.318   5.506
  337MY     H7R13240   2.184   3.366   5.557
  337MY     H7S13241   2.333   3.391   5.456
  337MY     C1613242   2.224   3.234   5.380
  337MY     H6R13243   2.304   3.171   5.342
  337MY     H6S13244   2.133   3.175   5.394
  337MY     C1513245   2.190   3.340   5.282
  337MY     H5R13246   2.123   3.416   5.324
  337MY     H5S13247   2.282   3.398   5.276
  337MY     C1413248   2.141   3.307   5.144
  337MY     H4R13249   2.212   3.239   5.096
  337MY     H4S13250   2.045   3.255   5.157
  337MY     C1313251   2.128   3.425   5.044
  337MY     H3R13252   2.101   3.386   4.945
  337MY     H3S13253   2.043   3.480   5.084
  337MY     C1213254   2.259   3.512   5.027
  337MY     H2R13255   2.299   3.549   5.122
  337MY     H2S13256   2.344   3.457   4.987
  338PC     C1113257   2.240   3.623   4.922
  338PC     O1213258   2.139   3.630   4.849
  338PC     O1113259   2.354   3.698   4.927
  338PC      C113260   2.368   3.794   4.814
  338PC      HR13261   2.364   3.736   4.722
  338PC      HS13262   2.283   3.863   4.805
  338PC      C213263   2.496   3.874   4.820
  338PC      HX13264   2.505   3.959   4.751
  338PC      C313265   2.615   3.783   4.783
  338PC      HA13266   2.693   3.853   4.752
  338PC      HB13267   2.654   3.720   4.863
  338PC     O3113268   2.591   3.694   4.678
  338PC     P3113269   2.560   3.735   4.527
  338PC     O3213270   2.707   3.764   4.480
  338PC     C3113271   2.801   3.664   4.445
  338PC     H1A13272   2.906   3.689   4.461
  338PC     H1B13273   2.777   3.588   4.519
  338PC     C3213274   2.785   3.608   4.306
  338PC     H2A13275   2.840   3.516   4.286
  338PC     H2B13276   2.683   3.577   4.282
  338PC     N3113277   2.834   3.700   4.195
  338PC     C3313278   2.976   3.727   4.225
  338PC     H3A13279   2.982   3.798   4.307
  338PC     H3B13280   3.022   3.771   4.136
  338PC     H3C13281   3.032   3.636   4.247
  338PC     C3413282   2.755   3.826   4.205
  338PC     H4A13283   2.785   3.881   4.116
  338PC     H4B13284   2.773   3.872   4.302
  338PC     H4C13285   2.653   3.789   4.202
  338PC     C3513286   2.813   3.618   4.072
  338PC     H5A13287   2.706   3.606   4.059
  338PC     H5B13288   2.871   3.526   4.068
  338PC     H5C13289   2.860   3.685   4.000
  338PC     O3313290   2.507   3.613   4.464
  338PC     O3413291   2.483   3.855   4.523
  338PC     O2113292   2.507   3.923   4.958
  338PC     C2113293   2.427   4.027   5.000
  338PC     O2213294   2.345   4.089   4.934
  339MY    H14T13295   2.868   4.037   6.477
  339MY    C11413296   2.801   4.047   6.391
  339MY    H14R13297   2.700   4.008   6.408
  339MY    H14S13298   2.802   4.151   6.360
  339MY    C11313299   2.860   3.966   6.274
  339MY    H13R13300   2.964   3.992   6.252
  339MY    H13S13301   2.855   3.861   6.303
  339MY    C11213302   2.776   3.982   6.145
  339MY    H12R13303   2.806   3.896   6.084
  339MY    H12S13304   2.668   3.989   6.161
  339MY    C11113305   2.825   4.106   6.073
  339MY    H11R13306   2.809   4.191   6.141
  339MY    H11S13307   2.933   4.097   6.059
  339MY    C11013308   2.762   4.137   5.934
  339MY    H10R13309   2.801   4.230   5.893
  339MY    H10S13310   2.791   4.053   5.871
  339MY     C1913311   2.609   4.144   5.941
  339MY     H9R13312   2.575   4.043   5.964
  339MY     H9S13313   2.579   4.206   6.026
  339MY     C1813314   2.530   4.194   5.821
  339MY     H8R13315   2.421   4.200   5.829
  339MY     H8S13316   2.566   4.297   5.809
  339MY     C1713317   2.563   4.120   5.686
  339MY     H7R13318   2.668   4.139   5.662
  339MY     H7S13319   2.540   4.014   5.693
  339MY     C1613320   2.470   4.185   5.586
  339MY     H6R13321   2.367   4.167   5.619
  339MY     H6S13322   2.484   4.293   5.584
  339MY     C1513323   2.495   4.143   5.438
  339MY     H5R13324   2.600   4.166   5.416
  339MY     H5S13325   2.487   4.035   5.450
  339MY     C1413326   2.399   4.211   5.347
  339MY     H4R13327   2.302   4.168   5.372
  339MY     H4S13328   2.386   4.319   5.360
  339MY     C1313329   2.437   4.186   5.200
  339MY     H3R13330   2.364   4.248   5.147
  339MY     H3S13331   2.538   4.226   5.189
  339MY     C1213332   2.439   4.039   5.157
  339MY     H2R13333   2.535   3.991   5.176
  339MY     H2S13334   2.356   3.981   5.201
  340MY    H14T13335   2.934   0.344   5.996
  340MY    C11413336   2.960   0.272   5.918
  340MY    H14R13337   3.042   0.204   5.945
  340MY    H14S13338   2.871   0.209   5.908
  340MY    C11313339   2.997   0.342   5.785
  340MY    H13R13340   3.062   0.425   5.814
  340MY    H13S13341   3.051   0.274   5.719
  340MY    C11213342   2.884   0.412   5.709
  340MY    H12R13343   2.803   0.344   5.679
  340MY    H12S13344   2.830   0.470   5.784
  340MY    C11113345   2.937   0.481   5.578
  340MY    H11R13346   3.007   0.563   5.595
  340MY    H11S13347   2.987   0.402   5.522
  340MY    C11013348   2.825   0.532   5.487
  340MY    H10R13349   2.763   0.449   5.453
  340MY    H10S13350   2.750   0.597   5.533
  340MY     C1913351   2.867   0.611   5.365
  340MY     H9R13352   2.932   0.698   5.382
  340MY     H9S13353   2.921   0.542   5.300
  340MY     C1813354   2.742   0.657   5.288
  340MY     H8R13355   2.689   0.563   5.270
  340MY     H8S13356   2.680   0.725   5.347
  340MY     C1713357   2.760   0.715   5.151
  340MY     H7R13358   2.820   0.805   5.166
  340MY     H7S13359   2.824   0.651   5.090
  340MY     C1613360   2.631   0.747   5.069
  340MY     H6R13361   2.576   0.656   5.044
  340MY     H6S13362   2.559   0.795   5.134
  340MY     C1513363   2.653   0.812   4.935
  340MY     H5R13364   2.724   0.895   4.943
  340MY     H5S13365   2.696   0.735   4.870
  340MY     C1413366   2.523   0.865   4.872
  340MY     H4R13367   2.450   0.784   4.863
  340MY     H4S13368   2.497   0.939   4.947
  340MY     C1313369   2.543   0.927   4.737
  340MY     H3R13370   2.449   0.974   4.709
  340MY     H3S13371   2.614   1.009   4.746
  340MY     C1213372   2.582   0.840   4.620
  340MY     H2R13373   2.629   0.894   4.538
  340MY     H2S13374   2.648   0.764   4.663
  341PC     C1113375   2.462   0.764   4.569
  341PC     O1213376   2.429   0.649   4.598
  341PC     O1113377   2.384   0.838   4.484
  341PC      C113378   2.271   0.785   4.427
  341PC      HR13379   2.281   0.767   4.319
  341PC      HS13380   2.240   0.691   4.473
  341PC      C213381   2.151   0.883   4.459
  341PC      HX13382   2.062   0.846   4.408
  341PC      C313383   2.179   1.015   4.387
  341PC      HA13384   2.122   1.095   4.434
  341PC      HB13385   2.282   1.051   4.398
  341PC     O3113386   2.166   1.008   4.244
  341PC     P3113387   2.031   1.031   4.165
  341PC     O3213388   2.026   1.187   4.132
  341PC     C3113389   1.963   1.275   4.223
  341PC     H1A13390   1.877   1.226   4.268
  341PC     H1B13391   2.028   1.304   4.306
  341PC     C3213392   1.931   1.388   4.124
  341PC     H2A13393   2.019   1.440   4.085
  341PC     H2B13394   1.889   1.337   4.037
  341PC     N3113395   1.840   1.496   4.171
  341PC     C3313396   1.701   1.453   4.185
  341PC     H3A13397   1.642   1.542   4.207
  341PC     H3B13398   1.694   1.392   4.275
  341PC     H3C13399   1.651   1.406   4.100
  341PC     C3413400   1.840   1.613   4.072
  341PC     H4A13401   1.799   1.580   3.977
  341PC     H4B13402   1.942   1.650   4.056
  341PC     H4C13403   1.775   1.688   4.118
  341PC     C3513404   1.869   1.555   4.307
  341PC     H5A13405   1.842   1.484   4.385
  341PC     H5B13406   1.819   1.649   4.330
  341PC     H5C13407   1.976   1.573   4.293
  341PC     O3313408   2.034   0.957   4.040
  341PC     O3413409   1.909   1.010   4.250
  341PC     O2113410   2.126   0.888   4.603
  341PC     C2113411   2.081   0.788   4.673
  341PC     O2213412   2.063   0.680   4.623
  342MY    H14T13413   1.905   1.728   5.601
  342MY    C11413414   1.949   1.666   5.522
  342MY    H14R13415   1.866   1.626   5.464
  342MY    H14S13416   2.020   1.726   5.467
  342MY    C11313417   2.031   1.545   5.575
  342MY    H13R13418   2.073   1.488   5.492
  342MY    H13S13419   2.127   1.582   5.614
  342MY    C11213420   1.958   1.460   5.678
  342MY    H12R13421   1.914   1.519   5.759
  342MY    H12S13422   1.869   1.417   5.633
  342MY    C11113423   2.044   1.353   5.740
  342MY    H11R13424   2.149   1.385   5.741
  342MY    H11S13425   2.019   1.354   5.846
  342MY    C11013426   2.026   1.215   5.666
  342MY    H10R13427   2.069   1.143   5.736
  342MY    H10S13428   1.920   1.196   5.646
  342MY     C1913429   2.102   1.193   5.537
  342MY     H9R13430   2.081   1.273   5.465
  342MY     H9S13431   2.208   1.188   5.559
  342MY     C1813432   2.057   1.063   5.474
  342MY     H8R13433   2.100   0.978   5.528
  342MY     H8S13434   1.948   1.056   5.476
  342MY     C1713435   2.100   1.060   5.320
  342MY     H7R13436   2.029   1.108   5.252
  342MY     H7S13437   2.190   1.122   5.314
  342MY     C1613438   2.122   0.919   5.258
  342MY     H6R13439   2.209   0.885   5.314
  342MY     H6S13440   2.031   0.861   5.275
  342MY     C1513441   2.148   0.920   5.108
  342MY     H5R13442   2.072   0.983   5.060
  342MY     H5S13443   2.247   0.964   5.087
  342MY     C1413444   2.134   0.775   5.062
  342MY     H4R13445   2.210   0.718   5.116
  342MY     H4S13446   2.043   0.723   5.094
  342MY     C1313447   2.145   0.746   4.917
  342MY     H3R13448   2.248   0.763   4.888
  342MY     H3S13449   2.122   0.639   4.906
  342MY     C1213450   2.052   0.821   4.819
  342MY     H2R13451   1.947   0.797   4.837
  342MY     H2S13452   2.070   0.928   4.821
  343MY    H14T13453   1.543   3.065   6.355
  343MY    C11413454   1.602   3.034   6.269
  343MY    H14R13455   1.597   2.925   6.256
  343MY    H14S13456   1.569   3.080   6.176
  343MY    C11313457   1.751   3.077   6.281
  343MY    H13R13458   1.759   3.177   6.326
  343MY    H13S13459   1.796   3.000   6.344
  343MY    C11213460   1.825   3.085   6.149
  343MY    H12R13461   1.772   3.165   6.096
  343MY    H12S13462   1.925   3.122   6.170
  343MY    C11113463   1.824   2.939   6.076
  343MY    H11R13464   1.844   2.854   6.141
  343MY    H11S13465   1.729   2.918   6.027
  343MY    C11013466   1.925   2.938   5.960
  343MY    H10R13467   2.022   2.949   6.010
  343MY    H10S13468   1.919   2.850   5.895
  343MY     C1913469   1.919   3.066   5.869
  343MY     H9R13470   1.824   3.115   5.893
  343MY     H9S13471   1.995   3.134   5.908
  343MY     C1813472   1.929   3.047   5.720
  343MY     H8R13473   2.027   2.997   5.717
  343MY     H8S13474   1.852   2.982   5.679
  343MY     C1713475   1.926   3.178   5.638
  343MY     H7R13476   1.973   3.256   5.698
  343MY     H7S13477   2.001   3.172   5.559
  343MY     C1613478   1.795   3.225   5.579
  343MY     H6R13479   1.750   3.146   5.519
  343MY     H6S13480   1.735   3.257   5.664
  343MY     C1513481   1.826   3.330   5.475
  343MY     H5R13482   1.907   3.394   5.511
  343MY     H5S13483   1.851   3.281   5.381
  343MY     C1413484   1.709   3.420   5.434
  343MY     H4R13485   1.615   3.365   5.430
  343MY     H4S13486   1.687   3.497   5.508
  343MY     C1313487   1.745   3.476   5.292
  343MY     H3R13488   1.679   3.563   5.280
  343MY     H3S13489   1.844   3.520   5.282
  343MY     C1213490   1.722   3.376   5.174
  343MY     H2R13491   1.810   3.312   5.159
  343MY     H2S13492   1.634   3.315   5.193
  344PC     C1113493   1.701   3.442   5.039
  344PC     O1213494   1.768   3.410   4.943
  344PC     O1113495   1.596   3.525   5.025
  344PC      C113496   1.537   3.563   4.893
  344PC      HR13497   1.605   3.632   4.841
  344PC      HS13498   1.521   3.474   4.832
  344PC      C213499   1.408   3.642   4.912
  344PC      HX13500   1.357   3.583   4.989
  344PC      C313501   1.315   3.673   4.795
  344PC      HA13502   1.221   3.618   4.789
  344PC      HB13503   1.280   3.776   4.798
  344PC     O3113504   1.386   3.644   4.666
  344PC     P3113505   1.419   3.759   4.556
  344PC     O3213506   1.539   3.845   4.619
  344PC     C3113507   1.672   3.790   4.626
  344PC     H1A13508   1.711   3.817   4.725
  344PC     H1B13509   1.669   3.681   4.624
  344PC     C3213510   1.758   3.849   4.511
  344PC     H2A13511   1.703   3.832   4.419
  344PC     H2B13512   1.767   3.957   4.511
  344PC     N3113513   1.899   3.792   4.493
  344PC     C3313514   1.893   3.643   4.483
  344PC     H3A13515   1.892   3.595   4.581
  344PC     H3B13516   1.983   3.603   4.438
  344PC     H3C13517   1.801   3.629   4.426
  344PC     C3413518   1.991   3.823   4.607
  344PC     H4A13519   1.943   3.798   4.702
  344PC     H4B13520   2.014   3.929   4.601
  344PC     H4C13521   2.084   3.767   4.609
  344PC     C3513522   1.962   3.845   4.371
  344PC     H5A13523   1.907   3.805   4.286
  344PC     H5B13524   2.062   3.802   4.365
  344PC     H5C13525   1.960   3.954   4.367
  344PC     O3313526   1.477   3.694   4.437
  344PC     O3413527   1.299   3.834   4.531
  344PC     O2113528   1.450   3.771   4.966
  344PC     C2113529   1.370   3.819   5.069
  344PC     O2213530   1.272   3.763   5.111
  345MY    H14T13531   2.254   3.293   6.174
  345MY    C11413532   2.330   3.346   6.117
  345MY    H14R13533   2.394   3.406   6.183
  345MY    H14S13534   2.391   3.264   6.079
  345MY    C11313535   2.276   3.445   6.016
  345MY    H13R13536   2.360   3.493   5.965
  345MY    H13S13537   2.221   3.390   5.940
  345MY    C11213538   2.176   3.549   6.069
  345MY    H12R13539   2.081   3.512   6.110
  345MY    H12S13540   2.225   3.598   6.153
  345MY    C11113541   2.149   3.666   5.981
  345MY    H11R13542   2.099   3.736   6.048
  345MY    H11S13543   2.236   3.718   5.939
  345MY    C11013544   2.061   3.628   5.857
  345MY    H10R13545   2.131   3.566   5.800
  345MY    H10S13546   1.987   3.559   5.898
  345MY     C1913547   2.013   3.751   5.775
  345MY     H9R13548   1.980   3.830   5.843
  345MY     H9S13549   2.101   3.802   5.734
  345MY     C1813550   1.910   3.715   5.659
  345MY     H8R13551   1.975   3.691   5.575
  345MY     H8S13552   1.848   3.632   5.694
  345MY     C1713553   1.819   3.828   5.612
  345MY     H7R13554   1.769   3.872   5.698
  345MY     H7S13555   1.884   3.906   5.572
  345MY     C1613556   1.734   3.773   5.496
  345MY     H6R13557   1.797   3.722   5.423
  345MY     H6S13558   1.659   3.703   5.533
  345MY     C1513559   1.655   3.885   5.422
  345MY     H5R13560   1.615   3.963   5.486
  345MY     H5S13561   1.728   3.933   5.356
  345MY     C1413562   1.543   3.825   5.333
  345MY     H4R13563   1.588   3.777   5.246
  345MY     H4S13564   1.492   3.755   5.399
  345MY     C1313565   1.433   3.924   5.287
  345MY     H3R13566   1.340   3.879   5.324
  345MY     H3S13567   1.455   4.019   5.338
  345MY     C1213568   1.423   3.942   5.132
  345MY     H2R13569   1.358   4.028   5.115
  345MY     H2S13570   1.525   3.962   5.099
  346MY    H14T13571   5.999   1.439   5.991
  346MY    C11413572   5.988   1.380   6.083
  346MY    H14R13573   6.042   1.445   6.152
  346MY    H14S13574   5.880   1.387   6.100
  346MY    C11313575   6.038   1.237   6.084
  346MY    H13R13576   6.138   1.234   6.042
  346MY    H13S13577   6.038   1.201   6.187
  346MY    C11213578   5.936   1.151   6.001
  346MY    H12R13579   5.982   1.053   5.998
  346MY    H12S13580   5.840   1.137   6.051
  346MY    C11113581   5.904   1.199   5.859
  346MY    H11R13582   5.853   1.295   5.869
  346MY    H11S13583   5.990   1.205   5.792
  346MY    C11013584   5.801   1.119   5.774
  346MY    H10R13585   5.705   1.131   5.825
  346MY    H10S13586   5.790   1.173   5.679
  346MY     C1913587   5.828   0.972   5.733
  346MY     H9R13588   5.800   0.905   5.815
  346MY     H9S13589   5.753   0.955   5.655
  346MY     C1813590   5.971   0.966   5.677
  346MY     H8R13591   5.980   1.040   5.597
  346MY     H8S13592   6.053   1.001   5.740
  346MY     C1713593   6.000   0.823   5.638
  346MY     H7R13594   6.020   0.769   5.731
  346MY     H7S13595   5.916   0.785   5.579
  346MY     C1613596   6.128   0.813   5.562
  346MY     H6R13597   6.208   0.879   5.595
  346MY     H6S13598   6.159   0.709   5.567
  346MY     C1513599   6.108   0.856   5.411
  346MY     H5R13600   6.031   0.795   5.365
  346MY     H5S13601   6.062   0.954   5.406
  346MY     C1413602   6.232   0.851   5.318
  346MY     H4R13603   6.303   0.923   5.360
  346MY     H4S13604   6.283   0.754   5.327
  346MY     C1313605   6.196   0.892   5.171
  346MY     H3R13606   6.178   1.000   5.165
  346MY     H3S13607   6.295   0.877   5.126
  346MY     C1213608   6.095   0.814   5.090
  346MY     H2R13609   6.102   0.707   5.108
  346MY     H2S13610   5.998   0.850   5.123
  347PC     C1113611   6.100   0.846   4.941
  347PC     O1213612   6.067   0.956   4.891
  347PC     O1113613   6.154   0.741   4.880
  347PC      C113614   6.163   0.738   4.734
  347PC      HR13615   6.194   0.837   4.698
  347PC      HS13616   6.247   0.673   4.707
  347PC      C213617   6.029   0.681   4.667
  347PC      HX13618   6.058   0.615   4.585
  347PC      C313619   5.936   0.795   4.619
  347PC      HA13620   5.840   0.754   4.586
  347PC      HB13621   5.908   0.857   4.704
  347PC     O3113622   6.005   0.861   4.510
  347PC     P3113623   6.013   0.817   4.358
  347PC     O3213624   5.873   0.851   4.291
  347PC     C3113625   5.827   0.987   4.277
  347PC     H1A13626   5.719   0.981   4.262
  347PC     H1B13627   5.852   1.039   4.370
  347PC     C3213628   5.888   1.068   4.165
  347PC     H2A13629   5.823   1.156   4.156
  347PC     H2B13630   5.986   1.110   4.189
  347PC     N3113631   5.889   1.008   4.026
  347PC     C3313632   5.941   0.874   4.015
  347PC     H3A13633   5.870   0.805   4.061
  347PC     H3B13634   6.037   0.873   4.067
  347PC     H3C13635   5.959   0.847   3.911
  347PC     C3413636   5.972   1.098   3.935
  347PC     H4A13637   6.071   1.117   3.976
  347PC     H4B13638   5.915   1.190   3.918
  347PC     H4C13639   5.984   1.040   3.843
  347PC     C3513640   5.758   1.002   3.975
  347PC     H5A13641   5.734   1.108   3.970
  347PC     H5B13642   5.694   0.957   4.051
  347PC     H5C13643   5.754   0.941   3.884
  347PC     O3313644   6.119   0.900   4.294
  347PC     O3413645   6.045   0.674   4.356
  347PC     O2113646   5.954   0.609   4.764
  347PC     C2113647   6.009   0.489   4.797
  347PC     O2213648   6.125   0.457   4.778
  348MY    H14T13649   6.294  -0.209   5.889
  348MY    C11413650   6.327  -0.217   5.785
  348MY    H14R13651   6.386  -0.307   5.771
  348MY    H14S13652   6.232  -0.240   5.735
  348MY    C11313653   6.401  -0.091   5.744
  348MY    H13R13654   6.322  -0.015   5.740
  348MY    H13S13655   6.460  -0.047   5.825
  348MY    C11213656   6.486  -0.113   5.618
  348MY    H12R13657   6.564  -0.185   5.642
  348MY    H12S13658   6.421  -0.149   5.539
  348MY    C11113659   6.565   0.005   5.564
  348MY    H11R13660   6.655   0.013   5.626
  348MY    H11S13661   6.606  -0.040   5.474
  348MY    C11013662   6.492   0.142   5.549
  348MY    H10R13663   6.447   0.170   5.644
  348MY    H10S13664   6.568   0.218   5.526
  348MY     C1913665   6.378   0.148   5.448
  348MY     H9R13666   6.412   0.131   5.345
  348MY     H9S13667   6.304   0.071   5.471
  348MY     C1813668   6.322   0.287   5.461
  348MY     H8R13669   6.285   0.308   5.562
  348MY     H8S13670   6.405   0.358   5.453
  348MY     C1713671   6.216   0.317   5.353
  348MY     H7R13672   6.264   0.301   5.256
  348MY     H7S13673   6.123   0.261   5.365
  348MY     C1613674   6.170   0.458   5.348
  348MY     H6R13675   6.130   0.493   5.443
  348MY     H6S13676   6.244   0.529   5.308
  348MY     C1513677   6.043   0.476   5.256
  348MY     H5R13678   5.966   0.427   5.315
  348MY     H5S13679   6.017   0.582   5.261
  348MY     C1413680   6.054   0.430   5.110
  348MY     H4R13681   6.137   0.487   5.068
  348MY     H4S13682   6.074   0.323   5.100
  348MY     C1313683   5.923   0.457   5.032
  348MY     H3R13684   5.841   0.402   5.078
  348MY     H3S13685   5.905   0.565   5.033
  348MY     C1213686   5.915   0.409   4.884
  348MY     H2R13687   5.945   0.305   4.881
  348MY     H2S13688   5.813   0.408   4.845
  349MY    H14T13689   3.534   1.462   6.130
  349MY    C11413690   3.628   1.496   6.087
  349MY    H14R13691   3.615   1.598   6.050
  349MY    H14S13692   3.708   1.509   6.159
  349MY    C11313693   3.670   1.414   5.959
  349MY    H13R13694   3.686   1.311   5.992
  349MY    H13S13695   3.590   1.417   5.885
  349MY    C11213696   3.790   1.465   5.895
  349MY    H12R13697   3.767   1.563   5.855
  349MY    H12S13698   3.866   1.480   5.973
  349MY    C11113699   3.837   1.377   5.777
  349MY    H11R13700   3.847   1.273   5.806
  349MY    H11S13701   3.764   1.382   5.696
  349MY    C11013702   3.970   1.425   5.717
  349MY    H10R13703   3.953   1.529   5.690
  349MY    H10S13704   4.036   1.427   5.804
  349MY     C1913705   4.031   1.335   5.603
  349MY     H9R13706   4.134   1.366   5.587
  349MY     H9S13707   4.022   1.230   5.635
  349MY     C1813708   3.946   1.340   5.475
  349MY     H8R13709   3.873   1.259   5.480
  349MY     H8S13710   3.900   1.438   5.461
  349MY     C1713711   4.047   1.308   5.367
  349MY     H7R13712   4.124   1.385   5.363
  349MY     H7S13713   4.103   1.218   5.394
  349MY     C1613714   3.983   1.282   5.228
  349MY     H6R13715   3.907   1.203   5.231
  349MY     H6S13716   3.943   1.377   5.194
  349MY     C1513717   4.098   1.252   5.125
  349MY     H5R13718   4.168   1.335   5.116
  349MY     H5S13719   4.155   1.163   5.151
  349MY     C1413720   4.031   1.231   4.993
  349MY     H4R13721   3.960   1.149   4.980
  349MY     H4S13722   3.962   1.309   4.960
  349MY     C1313723   4.125   1.200   4.879
  349MY     H3R13724   4.183   1.291   4.871
  349MY     H3S13725   4.196   1.127   4.919
  349MY     C1213726   4.049   1.169   4.749
  349MY     H2R13727   3.984   1.082   4.761
  349MY     H2S13728   3.980   1.251   4.732
  350PC     C1113729   4.136   1.166   4.633
  350PC     O1213730   4.145   1.256   4.549
  350PC     O1113731   4.217   1.056   4.629
  350PC      C113732   4.299   1.040   4.505
  350PC      HR13733   4.330   0.935   4.497
  350PC      HS13734   4.239   1.054   4.416
  350PC      C213735   4.428   1.115   4.515
  350PC      HX13736   4.415   1.221   4.538
  350PC      C313737   4.503   1.114   4.383
  350PC      HA13738   4.438   1.156   4.306
  350PC      HB13739   4.594   1.174   4.376
  350PC     O3113740   4.527   0.979   4.336
  350PC     P3113741   4.599   0.938   4.199
  350PC     O3213742   4.747   0.984   4.226
  350PC     C3113743   4.842   0.911   4.303
  350PC     H1A13744   4.828   0.804   4.285
  350PC     H1B13745   4.937   0.947   4.263
  350PC     C3213746   4.819   0.949   4.443
  350PC     H2A13747   4.825   1.057   4.457
  350PC     H2B13748   4.716   0.922   4.470
  350PC     N3113749   4.894   0.890   4.554
  350PC     C3313750   4.851   0.940   4.681
  350PC     H3A13751   4.908   0.894   4.762
  350PC     H3B13752   4.750   0.899   4.689
  350PC     H3C13753   4.851   1.048   4.691
  350PC     C3413754   5.042   0.912   4.538
  350PC     H4A13755   5.072   0.881   4.438
  350PC     H4B13756   5.098   0.847   4.606
  350PC     H4C13757   5.054   1.018   4.559
  350PC     C3513758   4.871   0.748   4.551
  350PC     H5A13759   4.928   0.703   4.633
  350PC     H5B13760   4.919   0.705   4.463
  350PC     H5C13761   4.766   0.720   4.565
  350PC     O3313762   4.592   0.799   4.186
  350PC     O3413763   4.547   1.019   4.088
  350PC     O2113764   4.510   1.057   4.619
  350PC     C2113765   4.483   1.092   4.744
  350PC     O2213766   4.427   1.198   4.775
  351MY    H14T13767   3.918   1.208   6.185
  351MY    C11413768   3.926   1.165   6.085
  351MY    H14R13769   3.829   1.119   6.065
  351MY    H14S13770   3.926   1.251   6.017
  351MY    C11313771   4.055   1.075   6.049
  351MY    H13R13772   4.143   1.125   6.092
  351MY    H13S13773   4.038   0.977   6.093
  351MY    C11213774   4.076   1.063   5.900
  351MY    H12R13775   3.983   1.032   5.854
  351MY    H12S13776   4.101   1.163   5.864
  351MY    C11113777   4.186   0.970   5.861
  351MY    H11R13778   4.274   0.972   5.925
  351MY    H11S13779   4.163   0.863   5.862
  351MY    C11013780   4.239   0.997   5.718
  351MY    H10R13781   4.167   1.029   5.644
  351MY    H10S13782   4.317   1.073   5.724
  351MY     C1913783   4.315   0.877   5.657
  351MY     H9R13784   4.405   0.868   5.717
  351MY     H9S13785   4.255   0.786   5.665
  351MY     C1813786   4.359   0.907   5.513
  351MY     H8R13787   4.272   0.911   5.447
  351MY     H8S13788   4.412   1.002   5.506
  351MY     C1713789   4.440   0.788   5.456
  351MY     H7R13790   4.524   0.752   5.516
  351MY     H7S13791   4.376   0.703   5.431
  351MY     C1613792   4.516   0.837   5.329
  351MY     H6R13793   4.577   0.924   5.355
  351MY     H6S13794   4.584   0.754   5.308
  351MY     C1513795   4.435   0.889   5.211
  351MY     H5R13796   4.379   0.803   5.173
  351MY     H5S13797   4.360   0.964   5.239
  351MY     C1413798   4.537   0.933   5.098
  351MY     H4R13799   4.601   1.005   5.149
  351MY     H4S13800   4.594   0.845   5.068
  351MY     C1313801   4.453   1.001   4.983
  351MY     H3R13802   4.353   0.959   4.979
  351MY     H3S13803   4.444   1.109   4.997
  351MY     C1213804   4.519   0.984   4.842
  351MY     H2R13805   4.627   0.966   4.848
  351MY     H2S13806   4.471   0.895   4.800
  352MY    H14T13807   3.499   3.475   6.217
  352MY    C11413808   3.422   3.544   6.184
  352MY    H14R13809   3.328   3.495   6.158
  352MY    H14S13810   3.387   3.621   6.253
  352MY    C11313811   3.485   3.596   6.050
  352MY    H13R13812   3.418   3.668   6.001
  352MY    H13S13813   3.573   3.655   6.076
  352MY    C11213814   3.518   3.480   5.961
  352MY    H12R13815   3.580   3.410   6.017
  352MY    H12S13816   3.424   3.438   5.924
  352MY    C11113817   3.616   3.508   5.846
  352MY    H11R13818   3.555   3.571   5.781
  352MY    H11S13819   3.693   3.573   5.887
  352MY    C11013820   3.668   3.380   5.776
  352MY    H10R13821   3.686   3.303   5.851
  352MY    H10S13822   3.589   3.339   5.713
  352MY     C1913823   3.786   3.405   5.693
  352MY     H9R13824   3.861   3.436   5.766
  352MY     H9S13825   3.830   3.321   5.640
  352MY     C1813826   3.767   3.518   5.581
  352MY     H8R13827   3.756   3.620   5.619
  352MY     H8S13828   3.866   3.529   5.535
  352MY     C1713829   3.653   3.481   5.477
  352MY     H7R13830   3.691   3.411   5.403
  352MY     H7S13831   3.559   3.448   5.522
  352MY     C1613832   3.610   3.606   5.396
  352MY     H6R13833   3.538   3.575   5.320
  352MY     H6S13834   3.554   3.677   5.458
  352MY     C1513835   3.734   3.662   5.328
  352MY     H5R13836   3.800   3.710   5.401
  352MY     H5S13837   3.775   3.583   5.265
  352MY     C1413838   3.678   3.776   5.232
  352MY     H4R13839   3.588   3.746   5.177
  352MY     H4S13840   3.652   3.861   5.295
  352MY     C1313841   3.782   3.825   5.130
  352MY     H3R13842   3.881   3.846   5.170
  352MY     H3S13843   3.787   3.744   5.058
  352MY     C1213844   3.724   3.953   5.062
  352MY     H2R13845   3.634   3.919   5.011
  352MY     H2S13846   3.701   4.038   5.127
  353PC     C1113847   3.813   4.014   4.960
  353PC     O1213848   3.933   3.979   4.935
  353PC     O1113849   3.752   4.107   4.891
  353PC      C113850   3.829   4.186   4.793
  353PC      HR13851   3.916   4.225   4.847
  353PC      HS13852   3.864   4.116   4.717
  353PC      C213853   3.752   4.305   4.738
  353PC      HX13854   3.657   4.264   4.706
  353PC      C313855   3.841   4.375   4.632
  353PC      HA13856   3.797   4.473   4.611
  353PC      HB13857   3.947   4.380   4.661
  353PC     O3113858   3.827   4.295   4.517
  353PC     P3113859   3.704   4.311   4.415
  353PC     O3213860   3.766   4.382   4.288
  353PC     C3113861   3.846   4.314   4.189
  353PC     H1A13862   3.928   4.382   4.162
  353PC     H1B13863   3.887   4.217   4.217
  353PC     C3213864   3.755   4.303   4.066
  353PC     H2A13865   3.671   4.236   4.083
  353PC     H2B13866   3.726   4.402   4.032
  353PC     N3113867   3.814   4.235   3.944
  353PC     C3313868   3.800   4.089   3.975
  353PC     H3A13869   3.695   4.059   3.976
  353PC     H3B13870   3.827   4.067   4.079
  353PC     H3C13871   3.864   4.030   3.909
  353PC     C3413872   3.954   4.274   3.912
  353PC     H4A13873   3.956   4.380   3.887
  353PC     H4B13874   3.984   4.212   3.828
  353PC     H4C13875   4.014   4.265   4.003
  353PC     C3513876   3.725   4.272   3.825
  353PC     H5A13877   3.734   4.377   3.795
  353PC     H5B13878   3.621   4.251   3.852
  353PC     H5C13879   3.761   4.204   3.748
  353PC     O3313880   3.659   4.174   4.384
  353PC     O3413881   3.602   4.395   4.478
  353PC     O2113882   3.735   4.396   4.852
  353PC     C2113883   3.616   4.440   4.895
  353PC     O2213884   3.510   4.422   4.843
  354MY    H14T13885   3.151   4.558   6.035
  354MY    C11413886   3.148   4.655   6.084
  354MY    H14R13887   3.066   4.707   6.034
  354MY    H14S13888   3.126   4.645   6.191
  354MY    C11313889   3.277   4.729   6.050
  354MY    H13R13890   3.274   4.825   6.101
  354MY    H13S13891   3.357   4.672   6.097
  354MY    C11213892   3.293   4.772   5.899
  354MY    H12R13893   3.211   4.841   5.878
  354MY    H12S13894   3.386   4.827   5.886
  354MY    C11113895   3.300   4.658   5.803
  354MY    H11R13896   3.213   4.592   5.814
  354MY    H11S13897   3.296   4.705   5.705
  354MY    C11013898   3.424   4.570   5.816
  354MY    H10R13899   3.417   4.525   5.915
  354MY    H10S13900   3.416   4.487   5.746
  354MY     C1913901   3.555   4.636   5.809
  354MY     H9R13902   3.569   4.698   5.898
  354MY     H9S13903   3.633   4.560   5.818
  354MY     C1813904   3.600   4.725   5.694
  354MY     H8R13905   3.552   4.823   5.698
  354MY     H8S13906   3.704   4.758   5.703
  354MY     C1713907   3.585   4.666   5.553
  354MY     H7R13908   3.495   4.605   5.554
  354MY     H7S13909   3.586   4.744   5.477
  354MY     C1613910   3.697   4.564   5.528
  354MY     H6R13911   3.788   4.624   5.535
  354MY     H6S13912   3.692   4.485   5.603
  354MY     C1513913   3.689   4.500   5.390
  354MY     H5R13914   3.782   4.445   5.379
  354MY     H5S13915   3.610   4.427   5.408
  354MY     C1413916   3.665   4.589   5.262
  354MY     H4R13917   3.564   4.629   5.270
  354MY     H4S13918   3.728   4.678   5.249
  354MY     C1313919   3.674   4.500   5.131
  354MY     H3R13920   3.781   4.479   5.125
  354MY     H3S13921   3.629   4.401   5.145
  354MY     C1213922   3.624   4.556   4.993
  354MY     H2R13923   3.526   4.603   5.008
  354MY     H2S13924   3.680   4.634   4.942
  355MY    H14T13925   0.353   1.575   6.328
  355MY    C11413926   0.450   1.586   6.280
  355MY    H14R13927   0.464   1.693   6.262
  355MY    H14S13928   0.525   1.556   6.354
  355MY    C11313929   0.464   1.518   6.144
  355MY    H13R13930   0.430   1.586   6.067
  355MY    H13S13931   0.570   1.500   6.124
  355MY    C11213932   0.391   1.385   6.132
  355MY    H12R13933   0.427   1.321   6.213
  355MY    H12S13934   0.283   1.397   6.137
  355MY    C11113935   0.425   1.328   5.993
  355MY    H11R13936   0.407   1.400   5.913
  355MY    H11S13937   0.532   1.307   5.992
  355MY    C11013938   0.353   1.195   5.958
  355MY    H10R13939   0.379   1.114   6.027
  355MY    H10S13940   0.249   1.224   5.971
  355MY     C1913941   0.387   1.158   5.809
  355MY     H9R13942   0.301   1.104   5.768
  355MY     H9S13943   0.380   1.252   5.755
  355MY     C1813944   0.521   1.078   5.805
  355MY     H8R13945   0.607   1.128   5.850
  355MY     H8S13946   0.501   0.985   5.858
  355MY     C1713947   0.575   1.045   5.663
  355MY     H7R13948   0.658   0.974   5.668
  355MY     H7S13949   0.493   0.996   5.609
  355MY     C1613950   0.629   1.175   5.597
  355MY     H6R13951   0.547   1.236   5.557
  355MY     H6S13952   0.683   1.238   5.667
  355MY     C1513953   0.728   1.142   5.482
  355MY     H5R13954   0.820   1.102   5.525
  355MY     H5S13955   0.684   1.065   5.418
  355MY     C1413956   0.759   1.274   5.397
  355MY     H4R13957   0.663   1.315   5.366
  355MY     H4S13958   0.797   1.356   5.457
  355MY     C1313959   0.845   1.246   5.275
  355MY     H3R13960   0.785   1.202   5.196
  355MY     H3S13961   0.868   1.347   5.240
  355MY     C1213962   0.972   1.167   5.300
  355MY     H2R13963   1.021   1.203   5.391
  355MY     H2S13964   0.946   1.062   5.317
  356PC     C1113965   1.070   1.194   5.186
  356PC     O1213966   1.054   1.162   5.075
  356PC     O1113967   1.181   1.257   5.227
  356PC      C113968   1.278   1.301   5.128
  356PC      HR13969   1.374   1.317   5.176
  356PC      HS13970   1.284   1.220   5.054
  356PC      C213971   1.228   1.432   5.058
  356PC      HX13972   1.126   1.434   5.018
  356PC      C313973   1.318   1.476   4.935
  356PC      HA13974   1.284   1.560   4.873
  356PC      HB13975   1.409   1.516   4.980
  356PC     O3113976   1.327   1.369   4.839
  356PC     P3113977   1.289   1.390   4.685
  356PC     O3213978   1.143   1.455   4.696
  356PC     C3113979   1.036   1.368   4.725
  356PC     H1A13980   1.054   1.270   4.679
  356PC     H1B13981   1.025   1.356   4.833
  356PC     C3213982   0.908   1.442   4.676
  356PC     H2A13983   0.824   1.383   4.712
  356PC     H2B13984   0.897   1.541   4.721
  356PC     N3113985   0.882   1.464   4.530
  356PC     C3313986   0.757   1.542   4.523
  356PC     H3A13987   0.770   1.641   4.567
  356PC     H3B13988   0.680   1.492   4.582
  356PC     H3C13989   0.730   1.553   4.418
  356PC     C3413990   0.854   1.330   4.458
  356PC     H4A13991   0.943   1.267   4.446
  356PC     H4B13992   0.807   1.348   4.362
  356PC     H4C13993   0.789   1.269   4.522
  356PC     C3513994   0.986   1.542   4.462
  356PC     H5A13995   1.073   1.476   4.464
  356PC     H5B13996   0.992   1.640   4.509
  356PC     H5C13997   0.958   1.544   4.356
  356PC     O3313998   1.371   1.499   4.630
  356PC     O3413999   1.281   1.267   4.607
  356PC     O2114000   1.232   1.539   5.151
  356PC     C2114001   1.123   1.586   5.212
  356PC     O2214002   1.012   1.532   5.203
  357MY    H14T14003   0.221   2.215   5.346
  357MY    C11414004   0.315   2.260   5.313
  357MY    H14R14005   0.300   2.363   5.344
  357MY    H14S14006   0.394   2.216   5.373
  357MY    C11314007   0.345   2.244   5.164
  357MY    H13R14008   0.277   2.304   5.103
  357MY    H13S14009   0.443   2.285   5.139
  357MY    C11214010   0.329   2.099   5.114
  357MY    H12R14011   0.224   2.069   5.120
  357MY    H12S14012   0.348   2.099   5.006
  357MY    C11114013   0.419   2.000   5.186
  357MY    H11R14014   0.407   2.011   5.294
  357MY    H11S14015   0.386   1.899   5.161
  357MY    C11014016   0.569   2.018   5.150
  357MY    H10R14017   0.590   2.027   5.043
  357MY    H10S14018   0.608   2.106   5.201
  357MY     C1914019   0.660   1.905   5.200
  357MY     H9R14020   0.604   1.815   5.174
  357MY     H9S14021   0.756   1.908   5.148
  357MY     C1814022   0.683   1.892   5.352
  357MY     H8R14023   0.585   1.891   5.399
  357MY     H8S14024   0.732   1.798   5.380
  357MY     C1714025   0.788   1.993   5.399
  357MY     H7R14026   0.871   1.977   5.329
  357MY     H7S14027   0.746   2.092   5.381
  357MY     C1614028   0.845   1.991   5.546
  357MY     H6R14029   0.904   2.082   5.555
  357MY     H6S14030   0.756   1.995   5.610
  357MY     C1514031   0.920   1.868   5.591
  357MY     H5R14032   0.953   1.885   5.694
  357MY     H5S14033   0.856   1.780   5.585
  357MY     C1414034   1.050   1.829   5.510
  357MY     H4R14035   1.095   1.917   5.463
  357MY     H4S14036   1.125   1.802   5.584
  357MY     C1314037   1.028   1.715   5.408
  357MY     H3R14038   0.993   1.623   5.455
  357MY     H3S14039   0.959   1.746   5.329
  357MY     C1214040   1.148   1.690   5.317
  357MY     H2R14041   1.161   1.784   5.263
  357MY     H2S14042   1.239   1.672   5.376
  358MY    H14T14043   0.358   3.603   6.115
  358MY    C11414044   0.264   3.658   6.103
  358MY    H14R14045   0.242   3.656   5.997
  358MY    H14S14046   0.183   3.612   6.160
  358MY    C11314047   0.280   3.810   6.133
  358MY    H13R14048   0.188   3.863   6.110
  358MY    H13S14049   0.301   3.818   6.239
  358MY    C11214050   0.393   3.871   6.062
  358MY    H12R14051   0.480   3.825   6.110
  358MY    H12S14052   0.397   3.847   5.956
  358MY    C11114053   0.408   4.027   6.079
  358MY    H11R14054   0.348   4.071   5.999
  358MY    H11S14055   0.372   4.057   6.178
  358MY    C11014056   0.557   4.072   6.063
  358MY    H10R14057   0.561   4.181   6.061
  358MY    H10S14058   0.619   4.046   6.149
  358MY     C1914059   0.619   4.016   5.931
  358MY     H9R14060   0.725   4.040   5.941
  358MY     H9S14061   0.629   3.908   5.934
  358MY     C1814062   0.557   4.064   5.801
  358MY     H8R14063   0.466   4.008   5.777
  358MY     H8S14064   0.554   4.173   5.807
  358MY     C1714065   0.658   4.033   5.695
  358MY     H7R14066   0.755   4.082   5.708
  358MY     H7S14067   0.689   3.928   5.705
  358MY     C1614068   0.594   4.061   5.561
  358MY     H6R14069   0.512   3.991   5.548
  358MY     H6S14070   0.556   4.164   5.568
  358MY     C1514071   0.708   4.039   5.460
  358MY     H5R14072   0.795   4.102   5.481
  358MY     H5S14073   0.747   3.938   5.445
  358MY     C1414074   0.645   4.101   5.327
  358MY     H4R14075   0.546   4.058   5.313
  358MY     H4S14076   0.634   4.209   5.334
  358MY     C1314077   0.729   4.056   5.206
  358MY     H3R14078   0.831   4.079   5.239
  358MY     H3S14079   0.721   3.947   5.198
  358MY     C1214080   0.679   4.125   5.078
  358MY     H2R14081   0.571   4.106   5.073
  358MY     H2S14082   0.691   4.233   5.086
  359PC     C1114083   0.744   4.071   4.957
  359PC     O1214084   0.793   3.957   4.942
  359PC     O1114085   0.738   4.173   4.862
  359PC      C114086   0.808   4.146   4.743
  359PC      HR14087   0.912   4.116   4.760
  359PC      HS14088   0.753   4.075   4.680
  359PC      C214089   0.819   4.274   4.657
  359PC      HX14090   0.726   4.317   4.621
  359PC      C314091   0.899   4.232   4.533
  359PC      HA14092   0.999   4.196   4.558
  359PC      HB14093   0.850   4.150   4.481
  359PC     O3114094   0.912   4.342   4.439
  359PC     P3114095   0.793   4.392   4.332
  359PC     O3214096   0.712   4.498   4.418
  359PC     C3114097   0.741   4.644   4.421
  359PC     H1A14098   0.707   4.703   4.506
  359PC     H1B14099   0.850   4.654   4.413
  359PC     C3214100   0.685   4.714   4.301
  359PC     H2A14101   0.737   4.808   4.285
  359PC     H2B14102   0.710   4.652   4.215
  359PC     N3114103   0.538   4.728   4.289
  359PC     C3314104   0.465   4.597   4.305
  359PC     H3A14105   0.505   4.532   4.228
  359PC     H3B14106   0.358   4.617   4.301
  359PC     H3C14107   0.485   4.559   4.405
  359PC     C3414108   0.513   4.798   4.160
  359PC     H4A14109   0.419   4.852   4.173
  359PC     H4B14110   0.510   4.727   4.077
  359PC     H4C14111   0.593   4.871   4.151
  359PC     C3514112   0.488   4.811   4.396
  359PC     H5A14113   0.384   4.839   4.384
  359PC     H5B14114   0.545   4.904   4.401
  359PC     H5C14115   0.488   4.764   4.495
  359PC     O3314116   0.853   4.465   4.219
  359PC     O3414117   0.705   4.275   4.300
  359PC     O2114118   0.895   4.379   4.725
  359PC     C2114119   0.834   4.478   4.793
  359PC     O2214120   0.715   4.498   4.788
  360MY    H14T14121   1.528   4.121   5.759
  360MY    C11414122   1.491   4.040   5.822
  360MY    H14R14123   1.579   3.997   5.871
  360MY    H14S14124   1.430   4.092   5.896
  360MY    C11314125   1.428   3.923   5.750
  360MY    H13R14126   1.506   3.864   5.700
  360MY    H13S14127   1.385   3.860   5.828
  360MY    C11214128   1.321   3.969   5.649
  360MY    H12R14129   1.374   3.998   5.558
  360MY    H12S14130   1.267   3.879   5.619
  360MY    C11114131   1.205   4.053   5.700
  360MY    H11R14132   1.152   4.007   5.783
  360MY    H11S14133   1.253   4.137   5.751
  360MY    C11014134   1.104   4.092   5.587
  360MY    H10R14135   1.055   4.001   5.554
  360MY    H10S14136   1.024   4.153   5.630
  360MY     C1914137   1.166   4.172   5.469
  360MY     H9R14138   1.202   4.270   5.502
  360MY     H9S14139   1.246   4.110   5.426
  360MY     C1814140   1.062   4.203   5.361
  360MY     H8R14141   1.009   4.120   5.314
  360MY     H8S14142   0.981   4.256   5.411
  360MY     C1714143   1.131   4.298   5.258
  360MY     H7R14144   1.167   4.388   5.308
  360MY     H7S14145   1.217   4.247   5.212
  360MY     C1614146   1.043   4.355   5.150
  360MY     H6R14147   1.113   4.406   5.085
  360MY     H6S14148   0.992   4.272   5.100
  360MY     C1514149   0.935   4.442   5.211
  360MY     H5R14150   0.872   4.384   5.279
  360MY     H5S14151   0.969   4.521   5.278
  360MY     C1414152   0.833   4.491   5.107
  360MY     H4R14153   0.799   4.403   5.052
  360MY     H4S14154   0.753   4.547   5.156
  360MY     C1314155   0.877   4.605   5.001
  360MY     H3R14156   0.791   4.668   4.980
  360MY     H3S14157   0.943   4.676   5.053
  360MY     C1214158   0.934   4.554   4.871
  360MY     H2R14159   0.969   4.641   4.814
  360MY     H2S14160   1.028   4.500   4.880
  361MY    H14T14161   4.775   1.362   6.231
  361MY    C11414162   4.800   1.286   6.305
  361MY    H14R14163   4.728   1.274   6.387
  361MY    H14S14164   4.807   1.193   6.248
  361MY    C11314165   4.947   1.326   6.343
  361MY    H13R14166   4.935   1.407   6.415
  361MY    H13S14167   4.995   1.232   6.371
  361MY    C11214168   5.019   1.386   6.219
  361MY    H12R14169   5.126   1.377   6.238
  361MY    H12S14170   5.001   1.315   6.138
  361MY    C11114171   4.986   1.537   6.177
  361MY    H11R14172   4.888   1.538   6.129
  361MY    H11S14173   4.975   1.609   6.258
  361MY    C11014174   5.084   1.597   6.076
  361MY    H10R14175   5.052   1.700   6.059
  361MY    H10S14176   5.186   1.586   6.112
  361MY     C1914177   5.087   1.532   5.934
  361MY     H9R14178   5.163   1.574   5.869
  361MY     H9S14179   5.120   1.429   5.951
  361MY     C1814180   4.958   1.547   5.850
  361MY     H8R14181   4.888   1.478   5.897
  361MY     H8S14182   4.921   1.650   5.861
  361MY     C1714183   4.993   1.501   5.707
  361MY     H7R14184   5.068   1.573   5.675
  361MY     H7S14185   5.045   1.405   5.710
  361MY     C1614186   4.867   1.494   5.617
  361MY     H6R14187   4.801   1.410   5.640
  361MY     H6S14188   4.803   1.580   5.634
  361MY     C1514189   4.915   1.485   5.467
  361MY     H5R14190   4.825   1.466   5.408
  361MY     H5S14191   4.966   1.578   5.440
  361MY     C1414192   5.026   1.386   5.429
  361MY     H4R14193   5.126   1.430   5.434
  361MY     H4S14194   5.018   1.310   5.507
  361MY     C1314195   5.001   1.325   5.281
  361MY     H3R14196   5.073   1.244   5.266
  361MY     H3S14197   4.907   1.270   5.276
  361MY     C1214198   5.018   1.447   5.184
  361MY     H2R14199   4.961   1.536   5.214
  361MY     H2S14200   5.122   1.477   5.169
  362PC     C1114201   4.982   1.416   5.046
  362PC     O1214202   4.996   1.303   5.001
  362PC     O1114203   4.927   1.518   4.973
  362PC      C114204   4.879   1.499   4.832
  362PC      HR14205   4.833   1.593   4.799
  362PC      HS14206   4.962   1.489   4.762
  362PC      C214207   4.777   1.379   4.816
  362PC      HX14208   4.827   1.286   4.847
  362PC      C314209   4.720   1.361   4.672
  362PC      HA14210   4.621   1.315   4.678
  362PC      HB14211   4.716   1.459   4.623
  362PC     O3114212   4.807   1.272   4.597
  362PC     P3114213   4.896   1.344   4.480
  362PC     O3214214   4.795   1.347   4.354
  362PC     C3114215   4.750   1.466   4.280
  362PC     H1A14216   4.645   1.452   4.251
  362PC     H1B14217   4.759   1.560   4.334
  362PC     C3214218   4.834   1.481   4.156
  362PC     H2A14219   4.802   1.570   4.102
  362PC     H2B14220   4.937   1.486   4.192
  362PC     N3114221   4.830   1.367   4.053
  362PC     C3314222   4.911   1.413   3.934
  362PC     H3A14223   4.855   1.497   3.894
  362PC     H3B14224   4.909   1.337   3.856
  362PC     H3C14225   5.014   1.433   3.964
  362PC     C3414226   4.693   1.343   3.996
  362PC     H4A14227   4.639   1.438   4.001
  362PC     H4B14228   4.642   1.270   4.059
  362PC     H4C14229   4.703   1.298   3.898
  362PC     C3514230   4.883   1.239   4.098
  362PC     H5A14231   4.984   1.256   4.137
  362PC     H5B14232   4.884   1.168   4.016
  362PC     H5C14233   4.815   1.198   4.173
  362PC     O3314234   4.924   1.482   4.513
  362PC     O3414235   4.996   1.252   4.431
  362PC     O2114236   4.667   1.411   4.903
  362PC     C2114237   4.631   1.331   5.004
  362PC     O2214238   4.699   1.236   5.036
  363MY    H14T14239   4.489   1.165   6.490
  363MY    C11414240   4.386   1.192   6.467
  363MY    H14R14241   4.319   1.120   6.514
  363MY    H14S14242   4.366   1.296   6.492
  363MY    C11314243   4.383   1.170   6.315
  363MY    H13R14244   4.413   1.072   6.278
  363MY    H13S14245   4.277   1.185   6.294
  363MY    C11214246   4.442   1.282   6.229
  363MY    H12R14247   4.415   1.377   6.276
  363MY    H12S14248   4.551   1.278   6.235
  363MY    C11114249   4.387   1.278   6.078
  363MY    H11R14250   4.387   1.178   6.033
  363MY    H11S14251   4.286   1.318   6.086
  363MY    C11014252   4.483   1.358   5.987
  363MY    H10R14253   4.501   1.461   6.018
  363MY    H10S14254   4.581   1.310   5.994
  363MY     C1914255   4.422   1.360   5.844
  363MY     H9R14256   4.370   1.269   5.814
  363MY     H9S14257   4.345   1.438   5.852
  363MY     C1814258   4.520   1.403   5.736
  363MY     H8R14259   4.576   1.487   5.778
  363MY     H8S14260   4.581   1.314   5.719
  363MY     C1714261   4.458   1.448   5.614
  363MY     H7R14262   4.370   1.510   5.636
  363MY     H7S14263   4.524   1.515   5.560
  363MY     C1614264   4.421   1.328   5.522
  363MY     H6R14265   4.361   1.270   5.593
  363MY     H6S14266   4.350   1.377   5.454
  363MY     C1514267   4.528   1.247   5.444
  363MY     H5R14268   4.616   1.232   5.507
  363MY     H5S14269   4.491   1.150   5.410
  363MY     C1414270   4.577   1.325   5.321
  363MY     H4R14271   4.589   1.431   5.340
  363MY     H4S14272   4.673   1.281   5.295
  363MY     C1314273   4.483   1.301   5.200
  363MY     H3R14274   4.498   1.195   5.179
  363MY     H3S14275   4.379   1.322   5.226
  363MY     C1214276   4.506   1.376   5.068
  363MY     H2R14277   4.425   1.355   4.997
  363MY     H2S14278   4.511   1.484   5.081
  364MY    H14T14279   1.306   4.700   6.110
  364MY    C11414280   1.315   4.754   6.205
  364MY    H14R14281   1.335   4.697   6.296
  364MY    H14S14282   1.390   4.832   6.194
  364MY    C11314283   1.177   4.824   6.232
  364MY    H13R14284   1.106   4.745   6.255
  364MY    H13S14285   1.186   4.900   6.310
  364MY    C11214286   1.108   4.887   6.100
  364MY    H12R14287   1.118   4.825   6.011
  364MY    H12S14288   1.001   4.886   6.120
  364MY    C11114289   1.154   5.026   6.070
  364MY    H11R14290   1.094   5.065   5.987
  364MY    H11S14291   1.128   5.101   6.146
  364MY    C11014292   1.299   5.048   6.023
  364MY    H10R14293   1.332   5.152   6.026
  364MY    H10S14294   1.365   5.002   6.098
  364MY     C1914295   1.338   4.975   5.888
  364MY     H9R14296   1.446   4.961   5.877
  364MY     H9S14297   1.289   4.878   5.878
  364MY     C1814298   1.298   5.065   5.766
  364MY     H8R14299   1.191   5.088   5.777
  364MY     H8S14300   1.354   5.159   5.761
  364MY     C1714301   1.321   5.003   5.626
  364MY     H7R14302   1.429   4.997   5.611
  364MY     H7S14303   1.286   4.900   5.633
  364MY     C1614304   1.258   5.086   5.514
  364MY     H6R14305   1.151   5.089   5.534
  364MY     H6S14306   1.299   5.187   5.526
  364MY     C1514307   1.292   5.046   5.371
  364MY     H5R14308   1.397   5.053   5.343
  364MY     H5S14309   1.259   4.942   5.360
  364MY     C1414310   1.206   5.145   5.286
  364MY     H4R14311   1.103   5.150   5.322
  364MY     H4S14312   1.254   5.243   5.295
  364MY     C1314313   1.211   5.114   5.132
  364MY     H3R14314   1.309   5.148   5.098
  364MY     H3S14315   1.207   5.009   5.103
  364MY     C1214316   1.108   5.209   5.055
  364MY     H2R14317   1.011   5.204   5.107
  364MY     H2S14318   1.147   5.310   5.059
  365PC     C1114319   1.088   5.162   4.913
  365PC     O1214320   1.138   5.215   4.819
  365PC     O1114321   1.018   5.050   4.900
  365PC      C114322   0.978   5.004   4.769
  365PC      HR14323   0.890   4.944   4.794
  365PC      HS14324   0.951   5.086   4.702
  365PC      C214325   1.091   4.928   4.693
  365PC      HX14326   1.174   4.989   4.658
  365PC      C314327   1.024   4.847   4.577
  365PC      HA14328   1.105   4.820   4.509
  365PC      HB14329   0.982   4.761   4.630
  365PC     O3114330   0.916   4.908   4.520
  365PC     P3114331   0.929   4.982   4.377
  365PC     O3214332   1.027   5.103   4.417
  365PC     C3114333   0.980   5.231   4.459
  365PC     H1A14334   0.903   5.261   4.387
  365PC     H1B14335   0.930   5.222   4.555
  365PC     C3214336   1.102   5.321   4.449
  365PC     H2A14337   1.065   5.418   4.483
  365PC     H2B14338   1.175   5.273   4.514
  365PC     N3114339   1.154   5.350   4.314
  365PC     C3314340   1.278   5.439   4.338
  365PC     H3A14341   1.314   5.463   4.238
  365PC     H3B14342   1.348   5.373   4.389
  365PC     H3C14343   1.242   5.528   4.390
  365PC     C3414344   1.060   5.431   4.231
  365PC     H4A14345   1.105   5.474   4.142
  365PC     H4B14346   1.028   5.514   4.294
  365PC     H4C14347   0.979   5.362   4.208
  365PC     C3514348   1.192   5.222   4.240
  365PC     H5A14349   1.230   5.258   4.144
  365PC     H5B14350   1.101   5.166   4.219
  365PC     H5C14351   1.256   5.162   4.305
  365PC     O3314352   1.008   4.898   4.289
  365PC     O3414353   0.794   5.037   4.340
  365PC     O2114354   1.155   4.824   4.778
  365PC     C2114355   1.251   4.863   4.865
  365PC     O2214356   1.315   4.965   4.853
  366MY    H14T14357   1.638   5.359   5.673
  366MY    C11414358   1.730   5.341   5.728
  366MY    H14R14359   1.806   5.331   5.650
  366MY    H14S14360   1.756   5.421   5.798
  366MY    C11314361   1.706   5.196   5.788
  366MY    H13R14362   1.787   5.166   5.855
  366MY    H13S14363   1.618   5.204   5.851
  366MY    C11214364   1.680   5.088   5.674
  366MY    H12R14365   1.627   5.001   5.714
  366MY    H12S14366   1.630   5.134   5.589
  366MY    C11114367   1.814   5.025   5.621
  366MY    H11R14368   1.884   5.108   5.629
  366MY    H11S14369   1.837   4.946   5.693
  366MY    C11014370   1.804   4.965   5.479
  366MY    H10R14371   1.901   4.918   5.463
  366MY    H10S14372   1.723   4.893   5.494
  366MY     C1914373   1.792   5.064   5.361
  366MY     H9R14374   1.701   5.124   5.364
  366MY     H9S14375   1.868   5.139   5.384
  366MY     C1814376   1.796   4.999   5.219
  366MY     H8R14377   1.761   5.080   5.154
  366MY     H8S14378   1.901   4.971   5.206
  366MY     C1714379   1.714   4.874   5.197
  366MY     H7R14380   1.749   4.797   5.267
  366MY     H7S14381   1.607   4.889   5.217
  366MY     C1614382   1.736   4.836   5.054
  366MY     H6R14383   1.710   4.913   4.981
  366MY     H6S14384   1.842   4.812   5.043
  366MY     C1514385   1.663   4.706   5.016
  366MY     H5R14386   1.734   4.651   4.954
  366MY     H5S14387   1.650   4.643   5.104
  366MY     C1414388   1.527   4.730   4.947
  366MY     H4R14389   1.542   4.803   4.868
  366MY     H4S14390   1.499   4.636   4.899
  366MY     C1314391   1.410   4.773   5.044
  366MY     H3R14392   1.417   4.706   5.130
  366MY     H3S14393   1.422   4.875   5.079
  366MY     C1214394   1.282   4.750   4.962
  366MY     H2R14395   1.288   4.658   4.904
  366MY     H2S14396   1.200   4.731   5.031
  367MY    H14T14397   3.876   6.008   6.032
  367MY    C11414398   3.916   6.072   5.953
  367MY    H14R14399   3.847   6.156   5.963
  367MY    H14S14400   4.019   6.097   5.979
  367MY    C11314401   3.912   6.010   5.809
  367MY    H13R14402   3.951   6.080   5.736
  367MY    H13S14403   3.977   5.923   5.799
  367MY    C11214404   3.767   5.966   5.769
  367MY    H12R14405   3.735   5.875   5.820
  367MY    H12S14406   3.708   6.053   5.799
  367MY    C11114407   3.764   5.953   5.613
  367MY    H11R14408   3.801   6.045   5.567
  367MY    H11S14409   3.827   5.868   5.585
  367MY    C11014410   3.632   5.911   5.551
  367MY    H10R14411   3.605   5.816   5.597
  367MY    H10S14412   3.557   5.980   5.591
  367MY     C1914413   3.635   5.913   5.393
  367MY     H9R14414   3.708   5.841   5.355
  367MY     H9S14415   3.542   5.867   5.358
  367MY     C1814416   3.642   6.045   5.322
  367MY     H8R14417   3.548   6.092   5.350
  367MY     H8S14418   3.730   6.103   5.352
  367MY     C1714419   3.636   6.026   5.169
  367MY     H7R14420   3.706   5.944   5.154
  367MY     H7S14421   3.536   5.992   5.143
  367MY     C1614422   3.684   6.140   5.074
  367MY     H6R14423   3.625   6.229   5.097
  367MY     H6S14424   3.784   6.162   5.113
  367MY     C1514425   3.680   6.101   4.924
  367MY     H5R14426   3.728   6.005   4.907
  367MY     H5S14427   3.574   6.077   4.911
  367MY     C1414428   3.742   6.198   4.823
  367MY     H4R14429   3.677   6.285   4.830
  367MY     H4S14430   3.844   6.222   4.853
  367MY     C1314431   3.753   6.135   4.685
  367MY     H3R14432   3.802   6.209   4.622
  367MY     H3S14433   3.810   6.041   4.682
  367MY     C1214434   3.609   6.131   4.618
  367MY     H2R14435   3.606   6.052   4.542
  367MY     H2S14436   3.533   6.105   4.692
  368PC     C1114437   3.573   6.259   4.554
  368PC     O1214438   3.484   6.340   4.594
  368PC     O1114439   3.642   6.283   4.441
  368PC      C114440   3.623   6.414   4.370
  368PC      HR14441   3.528   6.406   4.316
  368PC      HS14442   3.608   6.500   4.435
  368PC      C214443   3.746   6.439   4.279
  368PC      HX14444   3.756   6.547   4.261
  368PC      C314445   3.722   6.379   4.138
  368PC      HA14446   3.677   6.283   4.163
  368PC      HB14447   3.656   6.438   4.074
  368PC     O3114448   3.837   6.345   4.058
  368PC     P3114449   3.928   6.460   3.991
  368PC     O3214450   4.029   6.510   4.107
  368PC     C3114451   4.045   6.640   4.160
  368PC     H1A14452   3.946   6.681   4.180
  368PC     H1B14453   4.088   6.625   4.260
  368PC     C3214454   4.135   6.723   4.067
  368PC     H2A14455   4.236   6.682   4.067
  368PC     H2B14456   4.092   6.712   3.967
  368PC     N3114457   4.150   6.876   4.095
  368PC     C3314458   4.241   6.930   3.997
  368PC     H3A14459   4.253   7.034   4.028
  368PC     H3B14460   4.182   6.928   3.905
  368PC     H3C14461   4.329   6.867   3.986
  368PC     C3414462   4.221   6.910   4.230
  368PC     H4A14463   4.317   6.858   4.232
  368PC     H4B14464   4.155   6.876   4.309
  368PC     H4C14465   4.245   7.015   4.247
  368PC     C3514466   4.028   6.952   4.091
  368PC     H5A14467   3.977   6.919   4.182
  368PC     H5B14468   3.964   6.932   4.005
  368PC     H5C14469   4.033   7.061   4.095
  368PC     O3314470   4.005   6.403   3.883
  368PC     O3414471   3.835   6.569   3.969
  368PC     O2114472   3.871   6.403   4.345
  368PC     C2114473   3.907   6.484   4.443
  368PC     O2214474   3.863   6.600   4.457
  369MY    H14T14475   4.455   6.830   5.904
  369MY    C11414476   4.471   6.762   5.821
  369MY    H14R14477   4.473   6.817   5.726
  369MY    H14S14478   4.568   6.712   5.828
  369MY    C11314479   4.363   6.648   5.807
  369MY    H13R14480   4.371   6.582   5.894
  369MY    H13S14481   4.268   6.700   5.818
  369MY    C11214482   4.363   6.582   5.666
  369MY    H12R14483   4.462   6.561   5.627
  369MY    H12S14484   4.305   6.490   5.676
  369MY    C11114485   4.305   6.673   5.554
  369MY    H11R14486   4.204   6.683   5.593
  369MY    H11S14487   4.357   6.769   5.560
  369MY    C11014488   4.310   6.604   5.415
  369MY    H10R14489   4.410   6.619   5.372
  369MY    H10S14490   4.286   6.497   5.412
  369MY     C1914491   4.217   6.677   5.314
  369MY     H9R14492   4.113   6.683   5.347
  369MY     H9S14493   4.250   6.779   5.295
  369MY     C1814494   4.202   6.604   5.179
  369MY     H8R14495   4.285   6.629   5.113
  369MY     H8S14496   4.208   6.496   5.190
  369MY     C1714497   4.068   6.631   5.116
  369MY     H7R14498   3.978   6.601   5.170
  369MY     H7S14499   4.070   6.740   5.113
  369MY     C1614500   4.067   6.595   4.973
  369MY     H6R14501   3.970   6.630   4.936
  369MY     H6S14502   4.140   6.653   4.916
  369MY     C1514503   4.088   6.440   4.935
  369MY     H5R14504   4.171   6.391   4.984
  369MY     H5S14505   3.997   6.387   4.965
  369MY     C1414506   4.107   6.436   4.778
  369MY     H4R14507   4.195   6.495   4.754
  369MY     H4S14508   4.128   6.331   4.754
  369MY     C1314509   3.991   6.489   4.683
  369MY     H3R14510   3.895   6.461   4.726
  369MY     H3S14511   3.991   6.598   4.690
  369MY     C1214512   4.005   6.422   4.540
  369MY     H2R14513   4.108   6.450   4.516
  369MY     H2S14514   3.995   6.313   4.539
  370MY    H14T14515   2.742   2.549   6.117
  370MY    C11414516   2.805   2.630   6.080
  370MY    H14R14517   2.808   2.704   6.161
  370MY    H14S14518   2.904   2.593   6.053
  370MY    C11314519   2.738   2.693   5.959
  370MY    H13R14520   2.661   2.766   5.982
  370MY    H13S14521   2.821   2.745   5.910
  370MY    C11214522   2.678   2.596   5.863
  370MY    H12R14523   2.755   2.524   5.834
  370MY    H12S14524   2.598   2.543   5.914
  370MY    C11114525   2.594   2.663   5.743
  370MY    H11R14526   2.536   2.735   5.801
  370MY    H11S14527   2.655   2.728   5.680
  370MY    C11014528   2.521   2.549   5.659
  370MY    H10R14529   2.590   2.473   5.622
  370MY    H10S14530   2.460   2.490   5.727
  370MY     C1914531   2.434   2.592   5.542
  370MY     H9R14532   2.507   2.633   5.472
  370MY     H9S14533   2.397   2.500   5.496
  370MY     C1814534   2.328   2.699   5.573
  370MY     H8R14535   2.273   2.670   5.664
  370MY     H8S14536   2.390   2.787   5.589
  370MY     C1714537   2.240   2.711   5.444
  370MY     H7R14538   2.309   2.739   5.364
  370MY     H7S14539   2.187   2.619   5.419
  370MY     C1614540   2.135   2.827   5.450
  370MY     H6R14541   2.067   2.804   5.532
  370MY     H6S14542   2.180   2.920   5.484
  370MY     C1514543   2.067   2.847   5.315
  370MY     H5R14544   2.140   2.894   5.250
  370MY     H5S14545   2.047   2.745   5.284
  370MY     C1414546   1.943   2.932   5.330
  370MY     H4R14547   1.871   2.878   5.392
  370MY     H4S14548   1.970   3.021   5.388
  370MY     C1314549   1.866   2.951   5.191
  370MY     H3R14550   1.924   3.023   5.132
  370MY     H3S14551   1.873   2.853   5.144
  370MY     C1214552   1.720   3.000   5.209
  370MY     H2R14553   1.664   2.912   5.242
  370MY     H2S14554   1.707   3.079   5.284
  371PC     C1114555   1.652   3.035   5.083
  371PC     O1214556   1.695   3.006   4.973
  371PC     O1114557   1.538   3.096   5.103
  371PC      C114558   1.458   3.131   4.983
  371PC      HR14559   1.514   3.191   4.911
  371PC      HS14560   1.446   3.039   4.925
  371PC      C214561   1.331   3.204   5.025
  371PC      HX14562   1.263   3.131   5.068
  371PC      C314563   1.238   3.259   4.909
  371PC      HA14564   1.173   3.179   4.874
  371PC      HB14565   1.181   3.344   4.946
  371PC     O3114566   1.326   3.308   4.795
  371PC     P3114567   1.327   3.237   4.646
  371PC     O3214568   1.180   3.258   4.589
  371PC     C3114569   1.132   3.385   4.546
  371PC     H1A14570   1.152   3.460   4.623
  371PC     H1B14571   1.181   3.414   4.452
  371PC     C3214572   0.982   3.383   4.520
  371PC     H2A14573   0.948   3.480   4.483
  371PC     H2B14574   0.963   3.307   4.444
  371PC     N3114575   0.889   3.349   4.637
  371PC     C3314576   0.905   3.210   4.682
  371PC     H3A14577   0.878   3.143   4.600
  371PC     H3B14578   0.840   3.203   4.769
  371PC     H3C14579   1.011   3.200   4.703
  371PC     C3414580   0.754   3.370   4.592
  371PC     H4A14581   0.687   3.372   4.678
  371PC     H4B14582   0.722   3.294   4.521
  371PC     H4C14583   0.762   3.466   4.541
  371PC     C3514584   0.915   3.456   4.742
  371PC     H5A14585   0.830   3.466   4.810
  371PC     H5B14586   0.920   3.548   4.683
  371PC     H5C14587   1.010   3.439   4.794
  371PC     O3314588   1.428   3.306   4.560
  371PC     O3414589   1.341   3.091   4.668
  371PC     O2114590   1.370   3.307   5.113
  371PC     C2114591   1.276   3.338   5.201
  371PC     O2214592   1.163   3.299   5.199
  372MY    H14T14593   1.309   3.301   6.417
  372MY    C11414594   1.346   3.325   6.317
  372MY    H14R14595   1.455   3.317   6.322
  372MY    H14S14596   1.310   3.248   6.249
  372MY    C11314597   1.297   3.464   6.260
  372MY    H13R14598   1.289   3.533   6.344
  372MY    H13S14599   1.374   3.496   6.189
  372MY    C11214600   1.160   3.438   6.192
  372MY    H12R14601   1.171   3.364   6.113
  372MY    H12S14602   1.080   3.412   6.262
  372MY    C11114603   1.114   3.576   6.131
  372MY    H11R14604   1.103   3.659   6.201
  372MY    H11S14605   1.185   3.617   6.059
  372MY    C11014606   0.968   3.562   6.080
  372MY    H10R14607   0.946   3.472   6.022
  372MY    H10S14608   0.910   3.550   6.171
  372MY     C1914609   0.935   3.699   6.003
  372MY     H9R14610   0.827   3.710   5.992
  372MY     H9S14611   0.952   3.788   6.064
  372MY     C1814612   1.001   3.718   5.865
  372MY     H8R14613   0.983   3.823   5.840
  372MY     H8S14614   1.109   3.702   5.878
  372MY     C1714615   0.951   3.624   5.752
  372MY     H7R14616   0.928   3.524   5.790
  372MY     H7S14617   0.849   3.657   5.730
  372MY     C1614618   1.044   3.621   5.626
  372MY     H6R14619   1.004   3.571   5.538
  372MY     H6S14620   1.059   3.726   5.598
  372MY     C1514621   1.186   3.565   5.650
  372MY     H5R14622   1.239   3.622   5.727
  372MY     H5S14623   1.178   3.465   5.694
  372MY     C1414624   1.274   3.562   5.523
  372MY     H4R14625   1.293   3.665   5.495
  372MY     H4S14626   1.376   3.527   5.544
  372MY     C1314627   1.227   3.474   5.410
  372MY     H3R14628   1.194   3.374   5.440
  372MY     H3S14629   1.131   3.510   5.371
  372MY     C1214630   1.319   3.454   5.291
  372MY     H2R14631   1.323   3.541   5.224
  372MY     H2S14632   1.419   3.427   5.327
  373MY    H14T14633   2.915   6.039   6.036
  373MY    C11414634   2.987   6.106   5.988
  373MY    H14R14635   2.979   6.209   6.024
  373MY    H14S14636   3.087   6.065   5.990
  373MY    C11314637   2.948   6.109   5.839
  373MY    H13R14638   2.991   6.203   5.802
  373MY    H13S14639   3.005   6.032   5.787
  373MY    C11214640   2.802   6.115   5.809
  373MY    H12R14641   2.752   6.027   5.851
  373MY    H12S14642   2.770   6.205   5.864
  373MY    C11114643   2.763   6.139   5.660
  373MY    H11R14644   2.654   6.132   5.670
  373MY    H11S14645   2.781   6.244   5.633
  373MY    C11014646   2.819   6.043   5.553
  373MY    H10R14647   2.922   6.072   5.531
  373MY    H10S14648   2.818   5.941   5.590
  373MY     C1914649   2.754   6.048   5.409
  373MY     H9R14650   2.799   5.972   5.345
  373MY     H9S14651   2.651   6.017   5.423
  373MY     C1814652   2.752   6.189   5.346
  373MY     H8R14653   2.687   6.195   5.259
  373MY     H8S14654   2.703   6.263   5.410
  373MY     C1714655   2.877   6.250   5.289
  373MY     H7R14656   2.954   6.248   5.367
  373MY     H7S14657   2.915   6.186   5.209
  373MY     C1614658   2.861   6.398   5.248
  373MY     H6R14659   2.786   6.437   5.316
  373MY     H6S14660   2.951   6.455   5.271
  373MY     C1514661   2.836   6.424   5.096
  373MY     H5R14662   2.920   6.376   5.046
  373MY     H5S14663   2.741   6.379   5.066
  373MY     C1414664   2.819   6.575   5.075
  373MY     H4R14665   2.733   6.619   5.126
  373MY     H4S14666   2.913   6.626   5.096
  373MY     C1314667   2.796   6.617   4.928
  373MY     H3R14668   2.691   6.596   4.905
  373MY     H3S14669   2.815   6.724   4.924
  373MY     C1214670   2.889   6.549   4.830
  373MY     H2R14671   2.992   6.556   4.866
  373MY     H2S14672   2.870   6.443   4.810
  374PC     C1114673   2.881   6.609   4.689
  374PC     O1214674   2.793   6.678   4.651
  374PC     O1114675   2.968   6.555   4.606
  374PC      C114676   3.011   6.624   4.488
  374PC      HR14677   2.936   6.603   4.411
  374PC      HS14678   3.004   6.733   4.495
  374PC      C214679   3.153   6.579   4.451
  374PC      HX14680   3.181   6.634   4.361
  374PC      C314681   3.156   6.422   4.425
  374PC      HA14682   3.261   6.391   4.428
  374PC      HB14683   3.110   6.370   4.510
  374PC     O3114684   3.093   6.383   4.301
  374PC     P3114685   3.151   6.432   4.162
  374PC     O3214686   3.091   6.580   4.158
  374PC     C3114687   2.946   6.600   4.144
  374PC     H1A14688   2.888   6.526   4.199
  374PC     H1B14689   2.923   6.701   4.179
  374PC     C3214690   2.908   6.587   3.996
  374PC     H2A14691   2.967   6.649   3.928
  374PC     H2B14692   2.922   6.483   3.966
  374PC     N3114693   2.762   6.611   3.972
  374PC     C3314694   2.674   6.519   4.046
  374PC     H3A14695   2.698   6.418   4.011
  374PC     H3B14696   2.567   6.532   4.026
  374PC     H3C14697   2.697   6.543   4.150
  374PC     C3414698   2.728   6.598   3.829
  374PC     H4A14699   2.733   6.491   3.808
  374PC     H4B14700   2.802   6.657   3.774
  374PC     H4C14701   2.624   6.630   3.824
  374PC     C3514702   2.736   6.749   4.004
  374PC     H5A14703   2.757   6.765   4.110
  374PC     H5B14704   2.628   6.760   3.990
  374PC     H5C14705   2.784   6.825   3.943
  374PC     O3314706   3.302   6.435   4.163
  374PC     O3414707   3.081   6.355   4.056
  374PC     O2114708   3.239   6.619   4.559
  374PC     C2114709   3.361   6.667   4.532
  374PC     O2214710   3.400   6.697   4.423
  375MY    H14T14711   4.005   6.319   5.823
  375MY    C11414712   4.032   6.407   5.764
  375MY    H14R14713   4.118   6.439   5.823
  375MY    H14S14714   4.046   6.381   5.659
  375MY    C11314715   3.914   6.500   5.785
  375MY    H13R14716   3.925   6.547   5.883
  375MY    H13S14717   3.928   6.570   5.702
  375MY    C11214718   3.776   6.437   5.761
  375MY    H12R14719   3.770   6.354   5.831
  375MY    H12S14720   3.696   6.498   5.803
  375MY    C11114721   3.738   6.399   5.620
  375MY    H11R14722   3.807   6.325   5.581
  375MY    H11S14723   3.639   6.354   5.625
  375MY    C11014724   3.723   6.508   5.514
  375MY    H10R14725   3.639   6.572   5.539
  375MY    H10S14726   3.814   6.568   5.522
  375MY     C1914727   3.705   6.451   5.375
  375MY     H9R14728   3.794   6.399   5.337
  375MY     H9S14729   3.615   6.390   5.362
  375MY     C1814730   3.677   6.564   5.273
  375MY     H8R14731   3.591   6.620   5.312
  375MY     H8S14732   3.767   6.626   5.274
  375MY     C1714733   3.652   6.518   5.129
  375MY     H7R14734   3.737   6.455   5.102
  375MY     H7S14735   3.551   6.482   5.113
  375MY     C1614736   3.668   6.641   5.027
  375MY     H6R14737   3.594   6.716   5.055
  375MY     H6S14738   3.768   6.684   5.036
  375MY     C1514739   3.651   6.601   4.883
  375MY     H5R14740   3.726   6.538   4.836
  375MY     H5S14741   3.552   6.553   4.884
  375MY     C1414742   3.644   6.728   4.801
  375MY     H4R14743   3.583   6.809   4.840
  375MY     H4S14744   3.745   6.767   4.789
  375MY     C1314745   3.591   6.706   4.656
  375MY     H3R14746   3.609   6.803   4.609
  375MY     H3S14747   3.640   6.620   4.610
  375MY     C1214748   3.438   6.682   4.663
  375MY     H2R14749   3.427   6.595   4.728
  375MY     H2S14750   3.397   6.768   4.717
  376MY    H14T14751   3.195   5.003   5.475
  376MY    C11414752   3.266   4.967   5.401
  376MY    H14R14753   3.292   5.048   5.332
  376MY    H14S14754   3.352   4.941   5.462
  376MY    C11314755   3.224   4.839   5.327
  376MY    H13R14756   3.130   4.855   5.273
  376MY    H13S14757   3.295   4.831   5.244
  376MY    C11214758   3.218   4.706   5.408
  376MY    H12R14759   3.311   4.712   5.466
  376MY    H12S14760   3.138   4.690   5.480
  376MY    C11114761   3.222   4.582   5.310
  376MY    H11R14762   3.136   4.587   5.243
  376MY    H11S14763   3.306   4.603   5.242
  376MY    C11014764   3.258   4.448   5.385
  376MY    H10R14765   3.345   4.465   5.448
  376MY    H10S14766   3.175   4.419   5.449
  376MY     C1914767   3.295   4.336   5.292
  376MY     H9R14768   3.204   4.313   5.236
  376MY     H9S14769   3.361   4.373   5.213
  376MY     C1814770   3.361   4.211   5.349
  376MY     H8R14771   3.465   4.228   5.377
  376MY     H8S14772   3.302   4.180   5.436
  376MY     C1714773   3.370   4.100   5.241
  376MY     H7R14774   3.415   4.145   5.152
  376MY     H7S14775   3.445   4.023   5.264
  376MY     C1614776   3.227   4.036   5.212
  376MY     H6R14777   3.166   4.039   5.302
  376MY     H6S14778   3.165   4.087   5.138
  376MY     C1514779   3.227   3.884   5.187
  376MY     H5R14780   3.261   3.832   5.277
  376MY     H5S14781   3.130   3.839   5.167
  376MY     C1414782   3.321   3.847   5.069
  376MY     H4R14783   3.299   3.901   4.977
  376MY     H4S14784   3.423   3.882   5.087
  376MY     C1314785   3.335   3.699   5.042
  376MY     H3R14786   3.419   3.676   4.976
  376MY     H3S14787   3.354   3.642   5.133
  376MY     C1214788   3.210   3.644   4.971
  376MY     H2R14789   3.129   3.634   5.043
  376MY     H2S14790   3.173   3.705   4.888
  377PC     C1114791   3.238   3.507   4.907
  377PC     O1214792   3.324   3.432   4.949
  377PC     O1114793   3.150   3.479   4.807
  377PC      C114794   3.162   3.355   4.743
  377PC      HR14795   3.261   3.345   4.699
  377PC      HS14796   3.143   3.283   4.824
  377PC      C214797   3.060   3.330   4.624
  377PC      HX14798   3.086   3.233   4.582
  377PC      C314799   3.091   3.431   4.510
  377PC      HA14800   3.071   3.532   4.548
  377PC      HB14801   3.193   3.417   4.474
  377PC     O3114802   2.991   3.405   4.403
  377PC     P3114803   3.029   3.300   4.287
  377PC     O3214804   3.089   3.396   4.180
  377PC     C3114805   3.232   3.406   4.161
  377PC     H1A14806   3.282   3.463   4.239
  377PC     H1B14807   3.266   3.303   4.148
  377PC     C3214808   3.256   3.476   4.025
  377PC     H2A14809   3.178   3.446   3.954
  377PC     H2B14810   3.235   3.581   4.041
  377PC     N3114811   3.388   3.466   3.961
  377PC     C3314812   3.482   3.510   4.064
  377PC     H3A14813   3.587   3.515   4.037
  377PC     H3B14814   3.476   3.432   4.140
  377PC     H3C14815   3.446   3.604   4.105
  377PC     C3414816   3.394   3.571   3.851
  377PC     H4A14817   3.358   3.669   3.884
  377PC     H4B14818   3.327   3.537   3.773
  377PC     H4C14819   3.496   3.591   3.818
  377PC     C3514820   3.419   3.330   3.908
  377PC     H5A14821   3.341   3.312   3.834
  377PC     H5B14822   3.419   3.248   3.981
  377PC     H5C14823   3.519   3.340   3.866
  377PC     O3314824   3.130   3.202   4.337
  377PC     O3414825   2.897   3.253   4.235
  377PC     O2114826   2.921   3.341   4.661
  377PC     C2114827   2.880   3.259   4.760
  377PC     O2214828   2.940   3.168   4.803
  378MY    H14T14829   3.261   4.245   5.912
  378MY    C11414830   3.217   4.249   5.812
  378MY    H14R14831   3.179   4.352   5.810
  378MY    H14S14832   3.309   4.251   5.754
  378MY    C11314833   3.108   4.143   5.788
  378MY    H13R14834   3.156   4.045   5.800
  378MY    H13S14835   3.037   4.154   5.869
  378MY    C11214836   3.041   4.147   5.648
  378MY    H12R14837   2.978   4.236   5.650
  378MY    H12S14838   3.112   4.161   5.567
  378MY    C11114839   2.954   4.020   5.636
  378MY    H11R14840   3.001   3.938   5.691
  378MY    H11S14841   2.860   4.045   5.685
  378MY    C11014842   2.934   3.979   5.484
  378MY    H10R14843   2.901   4.070   5.434
  378MY    H10S14844   3.030   3.947   5.442
  378MY     C1914845   2.827   3.867   5.464
  378MY     H9R14846   2.878   3.780   5.506
  378MY     H9S14847   2.743   3.885   5.531
  378MY     C1814848   2.787   3.844   5.313
  378MY     H8R14849   2.724   3.923   5.269
  378MY     H8S14850   2.882   3.843   5.261
  378MY     C1714851   2.712   3.708   5.287
  378MY     H7R14852   2.760   3.634   5.352
  378MY     H7S14853   2.606   3.716   5.311
  378MY     C1614854   2.708   3.667   5.142
  378MY     H6R14855   2.645   3.735   5.083
  378MY     H6S14856   2.809   3.656   5.102
  378MY     C1514857   2.631   3.530   5.139
  378MY     H5R14858   2.668   3.452   5.206
  378MY     H5S14859   2.525   3.549   5.160
  378MY     C1414860   2.638   3.461   4.997
  378MY     H4R14861   2.592   3.365   5.024
  378MY     H4S14862   2.565   3.512   4.934
  378MY     C1314863   2.772   3.423   4.923
  378MY     H3R14864   2.825   3.514   4.896
  378MY     H3S14865   2.834   3.379   5.002
  378MY     C1214866   2.751   3.309   4.814
  378MY     H2R14867   2.705   3.225   4.866
  378MY     H2S14868   2.679   3.341   4.738
  379MY    H14T14869   1.632   0.809   6.488
  379MY    C11414870   1.575   0.897   6.459
  379MY    H14R14871   1.595   0.977   6.530
  379MY    H14S14872   1.624   0.919   6.364
  379MY    C11314873   1.427   0.883   6.469
  379MY    H13R14874   1.406   0.780   6.437
  379MY    H13S14875   1.387   0.896   6.570
  379MY    C11214876   1.343   0.983   6.383
  379MY    H12R14877   1.242   0.982   6.426
  379MY    H12S14878   1.376   1.084   6.404
  379MY    C11114879   1.354   0.961   6.239
  379MY    H11R14880   1.270   1.018   6.197
  379MY    H11S14881   1.454   0.997   6.215
  379MY    C11014882   1.333   0.815   6.192
  379MY    H10R14883   1.426   0.766   6.223
  379MY    H10S14884   1.246   0.770   6.240
  379MY     C1914885   1.313   0.805   6.044
  379MY     H9R14886   1.212   0.833   6.015
  379MY     H9S14887   1.389   0.873   6.005
  379MY     C1814888   1.320   0.664   5.987
  379MY     H8R14889   1.415   0.617   6.012
  379MY     H8S14890   1.245   0.597   6.029
  379MY     C1714891   1.298   0.655   5.830
  379MY     H7R14892   1.255   0.559   5.804
  379MY     H7S14893   1.219   0.730   5.817
  379MY     C1614894   1.424   0.691   5.742
  379MY     H6R14895   1.451   0.797   5.742
  379MY     H6S14896   1.511   0.632   5.774
  379MY     C1514897   1.418   0.643   5.591
  379MY     H5R14898   1.318   0.669   5.555
  379MY     H5S14899   1.488   0.703   5.534
  379MY     C1414900   1.430   0.487   5.558
  379MY     H4R14901   1.533   0.457   5.575
  379MY     H4S14902   1.373   0.431   5.632
  379MY     C1314903   1.401   0.447   5.416
  379MY     H3R14904   1.294   0.461   5.398
  379MY     H3S14905   1.462   0.521   5.364
  379MY     C1214906   1.447   0.312   5.380
  379MY     H2R14907   1.556   0.310   5.389
  379MY     H2S14908   1.412   0.237   5.451
  380PC     C1114909   1.426   0.260   5.239
  380PC     O1214910   1.318   0.263   5.188
  380PC     O1114911   1.530   0.213   5.166
  380PC      C114912   1.490   0.148   5.042
  380PC      HR14913   1.440   0.053   5.064
  380PC      HS14914   1.427   0.208   4.976
  380PC      C214915   1.617   0.121   4.962
  380PC      HX14916   1.665   0.217   4.941
  380PC      C314917   1.586   0.058   4.823
  380PC      HA14918   1.557   0.134   4.751
  380PC      HB14919   1.675   0.003   4.790
  380PC     O3114920   1.480  -0.036   4.842
  380PC     P3114921   1.414  -0.115   4.720
  380PC     O3214922   1.537  -0.208   4.674
  380PC     C3114923   1.598  -0.175   4.546
  380PC     H1A14924   1.594  -0.067   4.529
  380PC     H1B14925   1.703  -0.203   4.548
  380PC     C3214926   1.528  -0.253   4.431
  380PC     H2A14927   1.533  -0.361   4.444
  380PC     H2B14928   1.422  -0.230   4.443
  380PC     N3114929   1.577  -0.229   4.293
  380PC     C3314930   1.467  -0.282   4.201
  380PC     H3A14931   1.487  -0.389   4.200
  380PC     H3B14932   1.481  -0.243   4.100
  380PC     H3C14933   1.372  -0.267   4.252
  380PC     C3414934   1.709  -0.293   4.264
  380PC     H4A14935   1.731  -0.281   4.158
  380PC     H4B14936   1.702  -0.400   4.287
  380PC     H4C14937   1.791  -0.246   4.317
  380PC     C3514938   1.581  -0.088   4.259
  380PC     H5A14939   1.480  -0.048   4.247
  380PC     H5B14940   1.638  -0.067   4.169
  380PC     H5C14941   1.630  -0.030   4.338
  380PC     O3314942   1.311  -0.201   4.776
  380PC     O3414943   1.379  -0.015   4.616
  380PC     O2114944   1.706   0.029   5.025
  380PC     C2114945   1.830   0.078   5.049
  380PC     O2214946   1.879   0.183   5.004
  381MY    H14T14947   1.816   0.460   6.539
  381MY    C11414948   1.732   0.403   6.500
  381MY    H14R14949   1.792   0.331   6.445
  381MY    H14S14950   1.684   0.353   6.585
  381MY    C11314951   1.635   0.489   6.415
  381MY    H13R14952   1.564   0.538   6.482
  381MY    H13S14953   1.699   0.566   6.372
  381MY    C11214954   1.569   0.419   6.294
  381MY    H12R14955   1.513   0.330   6.324
  381MY    H12S14956   1.493   0.488   6.256
  381MY    C11114957   1.670   0.384   6.180
  381MY    H11R14958   1.739   0.466   6.161
  381MY    H11S14959   1.734   0.306   6.222
  381MY    C11014960   1.608   0.356   6.044
  381MY    H10R14961   1.518   0.307   6.083
  381MY    H10S14962   1.583   0.452   5.998
  381MY     C1914963   1.708   0.268   5.965
  381MY     H9R14964   1.800   0.326   5.958
  381MY     H9S14965   1.733   0.174   6.013
  381MY     C1814966   1.657   0.235   5.821
  381MY     H8R14967   1.575   0.163   5.826
  381MY     H8S14968   1.619   0.314   5.757
  381MY     C1714969   1.778   0.171   5.742
  381MY     H7R14970   1.869   0.231   5.752
  381MY     H7S14971   1.803   0.075   5.787
  381MY     C1614972   1.745   0.146   5.597
  381MY     H6R14973   1.668   0.068   5.590
  381MY     H6S14974   1.699   0.237   5.559
  381MY     C1514975   1.871   0.110   5.510
  381MY     H5R14976   1.946   0.188   5.518
  381MY     H5S14977   1.915   0.020   5.553
  381MY     C1414978   1.838   0.084   5.366
  381MY     H4R14979   1.767   0.002   5.349
  381MY     H4S14980   1.793   0.177   5.331
  381MY     C1314981   1.957   0.064   5.273
  381MY     H3R14982   1.994   0.164   5.248
  381MY     H3S14983   2.040   0.023   5.331
  381MY     C1214984   1.919  -0.011   5.140
  381MY     H2R14985   2.012  -0.033   5.087
  381MY     H2S14986   1.874  -0.105   5.173
  382MY    H14T14987   6.105   2.723   6.019
  382MY    C11414988   6.160   2.806   5.975
  382MY    H14R14989   6.157   2.888   6.047
  382MY    H14S14990   6.264   2.775   5.961
  382MY    C11314991   6.097   2.860   5.843
  382MY    H13R14992   5.989   2.850   5.857
  382MY    H13S14993   6.129   2.965   5.839
  382MY    C11214994   6.147   2.776   5.728
  382MY    H12R14995   6.253   2.799   5.711
  382MY    H12S14996   6.128   2.669   5.738
  382MY    C11114997   6.079   2.822   5.596
  382MY    H11R14998   6.112   2.925   5.583
  382MY    H11S14999   6.116   2.760   5.514
  382MY    C11015000   5.919   2.794   5.596
  382MY    H10R15001   5.903   2.731   5.684
  382MY    H10S15002   5.866   2.889   5.607
  382MY     C1915003   5.873   2.717   5.467
  382MY     H9R15004   5.930   2.755   5.382
  382MY     H9S15005   5.898   2.612   5.482
  382MY     C1815006   5.716   2.735   5.434
  382MY     H8R15007   5.654   2.701   5.518
  382MY     H8S15008   5.697   2.842   5.426
  382MY     C1715009   5.670   2.676   5.301
  382MY     H7R15010   5.563   2.695   5.300
  382MY     H7S15011   5.711   2.721   5.210
  382MY     C1615012   5.691   2.527   5.293
  382MY     H6R15013   5.793   2.495   5.272
  382MY     H6S15014   5.660   2.485   5.388
  382MY     C1515015   5.606   2.466   5.184
  382MY     H5R15016   5.624   2.358   5.182
  382MY     H5S15017   5.502   2.491   5.207
  382MY     C1415018   5.643   2.534   5.046
  382MY     H4R15019   5.572   2.497   4.972
  382MY     H4S15020   5.617   2.640   5.052
  382MY     C1315021   5.788   2.505   5.000
  382MY     H3R15022   5.851   2.570   5.062
  382MY     H3S15023   5.804   2.400   5.023
  382MY     C1215024   5.822   2.520   4.849
  382MY     H2R15025   5.918   2.471   4.834
  382MY     H2S15026   5.739   2.471   4.797
  383PC     C1115027   5.843   2.665   4.804
  383PC     O1215028   5.906   2.748   4.869
  383PC     O1115029   5.792   2.688   4.681
  383PC      C115030   5.798   2.827   4.630
  383PC      HR15031   5.725   2.824   4.549
  383PC      HS15032   5.762   2.906   4.696
  383PC      C215033   5.939   2.863   4.571
  383PC      HX15034   5.920   2.949   4.507
  383PC      C315035   6.003   2.749   4.485
  383PC      HA15036   6.035   2.668   4.552
  383PC      HB15037   5.923   2.702   4.428
  383PC     O3115038   6.116   2.790   4.403
  383PC     P3115039   6.089   2.847   4.255
  383PC     O3215040   6.087   2.715   4.162
  383PC     C3115041   6.201   2.630   4.137
  383PC     H1A15042   6.281   2.680   4.082
  383PC     H1B15043   6.245   2.589   4.229
  383PC     C3215044   6.156   2.510   4.052
  383PC     H2A15045   6.065   2.466   4.091
  383PC     H2B15046   6.138   2.549   3.952
  383PC     N3115047   6.252   2.395   4.040
  383PC     C3315048   6.278   2.317   4.167
  383PC     H3A15049   6.309   2.215   4.144
  383PC     H3B15050   6.187   2.318   4.227
  383PC     H3C15051   6.360   2.363   4.223
  383PC     C3415052   6.384   2.441   3.997
  383PC     H4A15053   6.414   2.532   4.050
  383PC     H4B15054   6.374   2.468   3.891
  383PC     H4C15055   6.464   2.367   4.000
  383PC     C3515056   6.207   2.294   3.942
  383PC     H5A15057   6.104   2.278   3.974
  383PC     H5B15058   6.264   2.201   3.945
  383PC     H5C15059   6.207   2.336   3.841
  383PC     O3315060   5.947   2.906   4.244
  383PC     O3415061   6.210   2.926   4.217
  383PC     O2115062   6.029   2.893   4.677
  383PC     C2115063   6.030   3.021   4.727
  383PC     O2215064   5.945   3.106   4.690
  384MY    H14T15065   6.333   3.464   5.912
  384MY    C11415066   6.226   3.442   5.907
  384MY    H14R15067   6.182   3.465   6.004
  384MY    H14S15068   6.185   3.521   5.843
  384MY    C11315069   6.199   3.308   5.852
  384MY    H13R15070   6.247   3.236   5.918
  384MY    H13S15071   6.092   3.291   5.859
  384MY    C11215072   6.251   3.300   5.712
  384MY    H12R15073   6.195   3.371   5.651
  384MY    H12S15074   6.356   3.330   5.711
  384MY    C11115075   6.249   3.159   5.654
  384MY    H11R15076   6.311   3.088   5.710
  384MY    H11S15077   6.146   3.125   5.660
  384MY    C11015078   6.290   3.153   5.506
  384MY    H10R15079   6.227   3.073   5.467
  384MY    H10S15080   6.262   3.247   5.457
  384MY     C1915081   6.437   3.124   5.489
  384MY     H9R15082   6.486   3.177   5.571
  384MY     H9S15083   6.457   3.017   5.495
  384MY     C1815084   6.496   3.168   5.352
  384MY     H8R15085   6.496   3.277   5.354
  384MY     H8S15086   6.601   3.139   5.358
  384MY     C1715087   6.422   3.112   5.235
  384MY     H7R15088   6.446   3.005   5.239
  384MY     H7S15089   6.319   3.148   5.242
  384MY     C1615090   6.477   3.174   5.106
  384MY     H6R15091   6.473   3.283   5.110
  384MY     H6S15092   6.583   3.147   5.099
  384MY     C1515093   6.398   3.131   4.984
  384MY     H5R15094   6.466   3.127   4.898
  384MY     H5S15095   6.361   3.030   5.005
  384MY     C1415096   6.281   3.232   4.951
  384MY     H4R15097   6.210   3.235   5.034
  384MY     H4S15098   6.320   3.332   4.934
  384MY     C1315099   6.201   3.185   4.817
  384MY     H3R15100   6.116   3.252   4.801
  384MY     H3S15101   6.267   3.199   4.731
  384MY     C1215102   6.140   3.044   4.826
  384MY     H2R15103   6.204   2.959   4.852
  384MY     H2S15104   6.076   3.047   4.915
  385WAT      O15105   1.474   0.442   1.207
  385WAT     H115106   1.518   0.367   1.167
  385WAT     H215107   1.401   0.461   1.149
  386WAT      O15108   4.689   5.454  11.260
  386WAT     H115109   4.758   5.488  11.204
  386WAT     H215110   4.659   5.374  11.216
  387WAT      O15111   6.074   3.835   9.238
  387WAT     H115112   6.119   3.831   9.154
  387WAT     H215113   6.018   3.912   9.232
  388WAT      O15114   0.926   2.555   0.617
  388WAT     H115115   0.898   2.647   0.612
  388WAT     H215116   0.847   2.505   0.601
  389WAT      O15117   6.025   3.533   1.843
  389WAT     H115118   6.042   3.445   1.810
  389WAT     H215119   6.099   3.585   1.811
  390WAT      O15120   3.233   1.746  10.457
  390WAT     H115121   3.257   1.760  10.549
  390WAT     H215122   3.142   1.774  10.452
  391WAT      O15123   3.961   3.868   8.239
  391WAT     H115124   3.868   3.866   8.216
  391WAT     H215125   4.006   3.882   8.156
  392WAT      O15126   2.233   2.713  12.141
  392WAT     H115127   2.249   2.705  12.235
  392WAT     H215128   2.172   2.786  12.134
  393WAT      O15129   1.100   2.189  10.666
  393WAT     H115130   1.082   2.096  10.679
  393WAT     H215131   1.115   2.196  10.571
  394WAT      O15132   5.089   3.339   0.111
  394WAT     H115133   5.057   3.284   0.182
  394WAT     H215134   5.039   3.421   0.119
  395WAT      O15135   0.025   3.498   2.021
  395WAT     H115136  -0.033   3.542   2.084
  395WAT     H215137   0.020   3.405   2.045
  396WAT      O15138   3.046   4.655  12.268
  396WAT     H115139   3.062   4.750  12.271
  396WAT     H215140   3.099   4.620  12.339
  397WAT      O15141   4.829   1.177   9.486
  397WAT     H115142   4.824   1.145   9.576
  397WAT     H215143   4.740   1.204   9.465
  398WAT      O15144   1.996   5.774  12.636
  398WAT     H115145   2.043   5.849  12.599
  398WAT     H215146   2.039   5.698  12.597
  399WAT      O15147   0.627   4.532  10.452
  399WAT     H115148   0.636   4.626  10.470
  399WAT     H215149   0.697   4.513  10.390
  400WAT      O15150   5.570   2.105   7.555
  400WAT     H115151   5.557   2.144   7.469
  400WAT     H215152   5.639   2.157   7.595
  401WAT      O15153   5.810   0.923   8.937
  401WAT     H115154   5.726   0.961   8.912
  401WAT     H215155   5.791   0.831   8.953
  402WAT      O15156   0.578   0.712   9.798
  402WAT     H115157   0.565   0.797   9.757
  402WAT     H215158   0.510   0.707   9.866
  403WAT      O15159   3.798   1.113  11.657
  403WAT     H115160   3.833   1.122  11.746
  403WAT     H215161   3.804   1.019  11.639
  404WAT      O15162   3.234   1.233   2.212
  404WAT     H115163   3.276   1.281   2.283
  404WAT     H215164   3.210   1.300   2.148
  405WAT      O15165   2.468   2.862   2.556
  405WAT     H115166   2.391   2.856   2.498
  405WAT     H215167   2.456   2.790   2.618
  406WAT      O15168   6.208   3.836   0.646
  406WAT     H115169   6.225   3.876   0.561
  406WAT     H215170   6.184   3.745   0.626
  407WAT      O15171   1.965   3.105   3.966
  407WAT     H115172   1.927   3.097   3.879
  407WAT     H215173   1.893   3.089   4.026
  408WAT      O15174   2.315   2.573  10.268
  408WAT     H115175   2.344   2.661  10.291
  408WAT     H215176   2.229   2.586  10.228
  409WAT      O15177   1.800   1.565   9.609
  409WAT     H115178   1.798   1.530   9.520
  409WAT     H215179   1.822   1.658   9.598
  410WAT      O15180   3.307   1.699  11.955
  410WAT     H115181   3.369   1.628  11.940
  410WAT     H215182   3.298   1.741  11.869
  411WAT      O15183   2.939   5.401  11.292
  411WAT     H115184   3.023   5.359  11.311
  411WAT     H215185   2.898   5.344  11.227
  412WAT      O15186   0.714   0.826  10.311
  412WAT     H115187   0.757   0.753  10.356
  412WAT     H215188   0.710   0.895  10.376
  413WAT      O15189   2.513   0.939   9.818
  413WAT     H115190   2.491   0.863   9.763
  413WAT     H215191   2.523   0.903   9.906
  414WAT      O15192   4.217   3.694   7.923
  414WAT     H115193   4.282   3.666   7.859
  414WAT     H215194   4.142   3.723   7.870
  415WAT      O15195   1.843   3.476   1.151
  415WAT     H115196   1.805   3.540   1.211
  415WAT     H215197   1.784   3.400   1.157
  416WAT      O15198   4.827   0.803   0.752
  416WAT     H115199   4.845   0.837   0.840
  416WAT     H215200   4.791   0.877   0.704
  417WAT      O15201   1.799   4.648   2.141
  417WAT     H115202   1.730   4.682   2.085
  417WAT     H215203   1.811   4.557   2.113
  418WAT      O15204   0.725   6.069   4.008
  418WAT     H115205   0.710   6.128   4.082
  418WAT     H215206   0.727   6.128   3.932
  419WAT      O15207   5.555   3.735   0.117
  419WAT     H115208   5.530   3.684   0.040
  419WAT     H215209   5.514   3.821   0.103
  420WAT      O15210   4.339   2.821  10.298
  420WAT     H115211   4.311   2.854  10.383
  420WAT     H215212   4.331   2.897  10.240
  421WAT      O15213   1.455   3.764   9.948
  421WAT     H115214   1.404   3.723   9.878
  421WAT     H215215   1.532   3.708   9.957
  422WAT      O15216   5.735   3.056   9.234
  422WAT     H115217   5.656   3.004   9.248
  422WAT     H215218   5.757   3.090   9.321
  423WAT      O15219   4.034   5.275   2.869
  423WAT     H115220   3.957   5.300   2.921
  423WAT     H215221   4.030   5.330   2.792
  424WAT      O15222   3.393   0.675   2.728
  424WAT     H115223   3.471   0.623   2.749
  424WAT     H215224   3.331   0.612   2.690
  425WAT      O15225   2.791   2.475  10.500
  425WAT     H115226   2.722   2.411  10.520
  425WAT     H215227   2.766   2.513  10.416
  426WAT      O15228   0.971   6.129   4.262
  426WAT     H115229   0.968   6.088   4.349
  426WAT     H215230   0.962   6.056   4.201
  427WAT      O15231   1.872   0.000   2.016
  427WAT     H115232   1.883  -0.054   1.938
  427WAT     H215233   1.908   0.085   1.990
  428WAT      O15234   5.763   2.466   2.491
  428WAT     H115235   5.772   2.526   2.417
  428WAT     H215236   5.840   2.484   2.546
  429WAT      O15237   2.291   4.383   1.854
  429WAT     H115238   2.265   4.390   1.762
  429WAT     H215239   2.345   4.460   1.870
  430WAT      O15240   0.952   5.769   8.688
  430WAT     H115241   0.991   5.713   8.620
  430WAT     H215242   0.996   5.742   8.769
  431WAT      O15243   1.151   5.538   1.789
  431WAT     H115244   1.107   5.525   1.705
  431WAT     H215245   1.167   5.632   1.794
  432WAT      O15246   0.752   5.130   1.353
  432WAT     H115247   0.700   5.146   1.432
  432WAT     H215248   0.738   5.037   1.334
  433WAT      O15249   4.763   2.185   1.303
  433WAT     H115250   4.748   2.216   1.392
  433WAT     H215251   4.693   2.225   1.251
  434WAT      O15252   0.158   5.815  11.398
  434WAT     H115253   0.067   5.815  11.426
  434WAT     H215254   0.204   5.861  11.468
  435WAT      O15255   1.076   0.677  11.857
  435WAT     H115256   1.136   0.668  11.932
  435WAT     H215257   1.132   0.668  11.780
  436WAT      O15258   3.444   1.168  12.562
  436WAT     H115259   3.489   1.103  12.507
  436WAT     H215260   3.486   1.160  12.648
  437WAT      O15261   6.090   3.183  12.284
  437WAT     H115262   6.094   3.190  12.380
  437WAT     H215263   5.999   3.205  12.262
  438WAT      O15264   3.645   1.199   8.151
  438WAT     H115265   3.641   1.144   8.229
  438WAT     H215266   3.627   1.140   8.078
  439WAT      O15267   4.287   4.321  11.514
  439WAT     H115268   4.292   4.370  11.596
  439WAT     H215269   4.282   4.229  11.540
  440WAT      O15270   4.158   3.828   3.192
  440WAT     H115271   4.175   3.827   3.098
  440WAT     H215272   4.207   3.753   3.226
  441WAT      O15273   4.430   2.065  11.424
  441WAT     H115274   4.403   2.127  11.492
  441WAT     H215275   4.525   2.056  11.437
  442WAT      O15276   4.671   1.391   0.495
  442WAT     H115277   4.610   1.406   0.567
  442WAT     H215278   4.669   1.472   0.444
  443WAT      O15279   2.485   4.387   1.575
  443WAT     H115280   2.446   4.301   1.595
  443WAT     H215281   2.488   4.390   1.479
  444WAT      O15282   3.275   1.961  10.261
  444WAT     H115283   3.250   1.873  10.289
  444WAT     H215284   3.193   2.009  10.256
  445WAT      O15285   5.187   2.637   4.170
  445WAT     H115286   5.155   2.554   4.205
  445WAT     H215287   5.199   2.692   4.247
  446WAT      O15288   0.812   4.627   1.260
  446WAT     H115289   0.754   4.553   1.242
  446WAT     H215290   0.886   4.588   1.308
  447WAT      O15291   5.372   2.976   2.371
  447WAT     H115292   5.376   2.887   2.405
  447WAT     H215293   5.281   2.987   2.343
  448WAT      O15294   1.083   6.123   7.822
  448WAT     H115295   1.067   6.137   7.729
  448WAT     H215296   1.020   6.181   7.866
  449WAT      O15297   2.883   5.101   0.385
  449WAT     H115298   2.939   5.061   0.319
  449WAT     H215299   2.942   5.156   0.436
  450WAT      O15300   4.377   3.895   0.099
  450WAT     H115301   4.335   3.823   0.146
  450WAT     H215302   4.354   3.974   0.148
  451WAT      O15303   5.382   0.525  12.217
  451WAT     H115304   5.401   0.454  12.279
  451WAT     H215305   5.466   0.569  12.205
  452WAT      O15306   5.921   2.925  10.940
  452WAT     H115307   5.948   2.985  10.870
  452WAT     H215308   5.837   2.960  10.969
  453WAT      O15309   5.807   1.662  11.221
  453WAT     H115310   5.830   1.694  11.134
  453WAT     H215311   5.752   1.585  11.206
  454WAT      O15312   3.390   4.868  11.539
  454WAT     H115313   3.422   4.780  11.519
  454WAT     H215314   3.356   4.861  11.629
  455WAT      O15315   1.620   4.890   7.762
  455WAT     H115316   1.674   4.812   7.746
  455WAT     H215317   1.683   4.959   7.784
  456WAT      O15318   5.697   3.040   3.986
  456WAT     H115319   5.635   3.085   3.928
  456WAT     H215320   5.668   3.062   4.074
  457WAT      O15321   0.989   3.399  10.039
  457WAT     H115322   0.955   3.368   9.955
  457WAT     H215323   1.067   3.346  10.054
  458WAT      O15324   2.753   5.866   3.465
  458WAT     H115325   2.759   5.779   3.505
  458WAT     H215326   2.734   5.925   3.538
  459WAT      O15327   5.663   0.841   1.236
  459WAT     H115328   5.651   0.856   1.330
  459WAT     H215329   5.720   0.913   1.207
  460WAT      O15330   4.513   0.405   0.311
  460WAT     H115331   4.519   0.496   0.284
  460WAT     H215332   4.574   0.359   0.253
  461WAT      O15333   3.655   5.583   0.118
  461WAT     H115334   3.618   5.666   0.147
  461WAT     H215335   3.612   5.517   0.173
  462WAT      O15336   4.378   2.713   0.599
  462WAT     H115337   4.296   2.737   0.642
  462WAT     H215338   4.352   2.657   0.526
  463WAT      O15339   0.466   5.065   3.606
  463WAT     H115340   0.411   5.122   3.551
  463WAT     H215341   0.406   5.032   3.673
  464WAT      O15342   0.378   2.832   9.568
  464WAT     H115343   0.346   2.899   9.508
  464WAT     H215344   0.343   2.750   9.533
  465WAT      O15345   2.916   3.219   2.280
  465WAT     H115346   2.924   3.144   2.221
  465WAT     H215347   2.897   3.293   2.223
  466WAT      O15348   5.994   0.264   2.083
  466WAT     H115349   6.060   0.195   2.074
  466WAT     H215350   5.994   0.284   2.177
  467WAT      O15351   4.153   0.702   9.985
  467WAT     H115352   4.243   0.675  10.001
  467WAT     H215353   4.100   0.630  10.017
  468WAT      O15354   2.910   3.278   3.967
  468WAT     H115355   2.900   3.269   4.062
  468WAT     H215356   2.896   3.190   3.934
  469WAT      O15357   0.078   4.288  11.290
  469WAT     H115358  -0.017   4.278  11.290
  469WAT     H215359   0.102   4.284  11.383
  470WAT      O15360   3.472   2.922   3.328
  470WAT     H115361   3.404   2.979   3.364
  470WAT     H215362   3.458   2.837   3.369
  471WAT      O15363   2.047   5.651   4.007
  471WAT     H115364   2.078   5.687   4.090
  471WAT     H215365   2.089   5.566   3.999
  472WAT      O15366   2.818   2.851  11.816
  472WAT     H115367   2.874   2.921  11.785
  472WAT     H215368   2.860   2.771  11.786
  473WAT      O15369   2.880   1.362   9.630
  473WAT     H115370   2.914   1.444   9.666
  473WAT     H215371   2.855   1.311   9.707
  474WAT      O15372   1.987   1.008   8.455
  474WAT     H115373   2.069   0.961   8.439
  474WAT     H215374   1.923   0.940   8.475
  475WAT      O15375   1.605   3.399  11.810
  475WAT     H115376   1.622   3.322  11.755
  475WAT     H215377   1.638   3.375  11.896
  476WAT      O15378   4.423   2.242  11.860
  476WAT     H115379   4.494   2.245  11.924
  476WAT     H215380   4.438   2.318  11.804
  477WAT      O15381   1.963   5.988   8.422
  477WAT     H115382   1.952   6.041   8.344
  477WAT     H215383   1.896   5.920   8.415
  478WAT      O15384   2.111   5.793  11.084
  478WAT     H115385   2.191   5.800  11.136
  478WAT     H215386   2.066   5.876  11.097
  479WAT      O15387   4.058   4.890  10.381
  479WAT     H115388   4.011   4.807  10.395
  479WAT     H215389   4.098   4.880  10.295
  480WAT      O15390   4.900   5.937   9.284
  480WAT     H115391   4.982   5.977   9.314
  480WAT     H215392   4.876   5.988   9.207
  481WAT      O15393   1.170   4.653   3.197
  481WAT     H115394   1.141   4.568   3.162
  481WAT     H215395   1.099   4.679   3.256
  482WAT      O15396   3.225   3.212  10.186
  482WAT     H115397   3.278   3.228  10.264
  482WAT     H215398   3.189   3.124  10.198
  483WAT      O15399   0.769   3.924   0.170
  483WAT     H115400   0.730   3.990   0.228
  483WAT     H215401   0.848   3.896   0.218
  484WAT      O15402   0.243   0.180   0.172
  484WAT     H115403   0.298   0.102   0.160
  484WAT     H215404   0.241   0.194   0.267
  485WAT      O15405   0.520   2.862   1.210
  485WAT     H115406   0.457   2.896   1.147
  485WAT     H215407   0.605   2.883   1.172
  486WAT      O15408   1.278   0.442   8.737
  486WAT     H115409   1.252   0.350   8.744
  486WAT     H215410   1.229   0.475   8.661
  487WAT      O15411   0.560   3.520   0.702
  487WAT     H115412   0.567   3.464   0.779
  487WAT     H215413   0.632   3.492   0.645
  488WAT      O15414   1.723   0.831   0.292
  488WAT     H115415   1.691   0.759   0.346
  488WAT     H215416   1.645   0.862   0.246
  489WAT      O15417   2.712   4.638   0.323
  489WAT     H115418   2.677   4.571   0.264
  489WAT     H215419   2.729   4.713   0.266
  490WAT      O15420   0.431   3.227   1.149
  490WAT     H115421   0.389   3.141   1.151
  490WAT     H215422   0.499   3.220   1.082
  491WAT      O15423   4.306   4.112  10.862
  491WAT     H115424   4.346   4.159  10.789
  491WAT     H215425   4.355   4.141  10.939
  492WAT      O15426   1.233   5.475   0.708
  492WAT     H115427   1.207   5.399   0.656
  492WAT     H215428   1.151   5.520   0.728
  493WAT      O15429   3.118   5.895  11.271
  493WAT     H115430   3.035   5.923  11.233
  493WAT     H215431   3.115   5.926  11.361
  494WAT      O15432   4.016   3.769   0.091
  494WAT     H115433   4.088   3.771   0.154
  494WAT     H215434   4.046   3.824   0.019
  495WAT      O15435   0.443   2.944   9.149
  495WAT     H115436   0.392   2.924   9.071
  495WAT     H215437   0.534   2.937   9.121
  496WAT      O15438   1.860   6.152   3.428
  496WAT     H115439   1.846   6.243   3.454
  496WAT     H215440   1.803   6.139   3.352
  497WAT      O15441   5.027   5.318   2.402
  497WAT     H115442   5.108   5.346   2.360
  497WAT     H215443   4.960   5.329   2.335
  498WAT      O15444   5.368   5.600   8.615
  498WAT     H115445   5.447   5.610   8.667
  498WAT     H215446   5.333   5.689   8.607
  499WAT      O15447   3.557   5.786   0.680
  499WAT     H115448   3.608   5.727   0.625
  499WAT     H215449   3.574   5.873   0.644
  500WAT      O15450   1.163   1.382   2.492
  500WAT     H115451   1.254   1.396   2.465
  500WAT     H215452   1.170   1.329   2.572
  501WAT      O15453   1.894   5.502  10.555
  501WAT     H115454   1.972   5.510  10.610
  501WAT     H215455   1.821   5.497  10.617
  502WAT      O15456   2.985   5.353   4.272
  502WAT     H115457   2.991   5.439   4.230
  502WAT     H215458   2.965   5.372   4.364
  503WAT      O15459   0.301   3.216  11.397
  503WAT     H115460   0.347   3.179  11.321
  503WAT     H215461   0.216   3.242  11.362
  504WAT      O15462   1.098   1.874   4.003
  504WAT     H115463   1.087   1.865   4.098
  504WAT     H215464   1.184   1.834   3.986
  505WAT      O15465   2.223   5.874   1.515
  505WAT     H115466   2.279   5.938   1.472
  505WAT     H215467   2.199   5.916   1.598
  506WAT      O15468   5.418   3.400   9.283
  506WAT     H115469   5.414   3.316   9.236
  506WAT     H215470   5.384   3.464   9.220
  507WAT      O15471   6.079   0.941   1.911
  507WAT     H115472   6.119   0.945   1.998
  507WAT     H215473   6.029   0.859   1.912
  508WAT      O15474   2.584   5.268   0.688
  508WAT     H115475   2.606   5.175   0.695
  508WAT     H215476   2.668   5.311   0.674
  509WAT      O15477   4.847   4.623   3.333
  509WAT     H115478   4.811   4.569   3.403
  509WAT     H215479   4.801   4.706   3.341
  510WAT      O15480   1.167   4.364   8.772
  510WAT     H115481   1.200   4.366   8.862
  510WAT     H215482   1.199   4.446   8.733
  511WAT      O15483   2.008   0.689   7.632
  511WAT     H115484   2.070   0.724   7.567
  511WAT     H215485   2.063   0.654   7.702
  512WAT      O15486   5.847   6.190   1.003
  512WAT     H115487   5.830   6.150   0.917
  512WAT     H215488   5.852   6.116   1.063
  513WAT      O15489   1.681   1.219  10.046
  513WAT     H115490   1.595   1.178  10.053
  513WAT     H215491   1.672   1.302  10.093
  514WAT      O15492   1.159   3.071   3.180
  514WAT     H115493   1.208   3.140   3.225
  514WAT     H215494   1.111   3.026   3.250
  515WAT      O15495   1.599   5.116   2.505
  515WAT     H115496   1.632   5.042   2.557
  515WAT     H215497   1.656   5.189   2.529
  516WAT      O15498   5.932   1.461   2.111
  516WAT     H115499   5.999   1.517   2.150
  516WAT     H215500   5.944   1.470   2.017
  517WAT      O15501   4.650   3.378   1.996
  517WAT     H115502   4.625   3.458   2.043
  517WAT     H215503   4.744   3.368   2.015
  518WAT      O15504   0.977   2.227  10.913
  518WAT     H115505   0.895   2.272  10.890
  518WAT     H215506   1.022   2.213  10.830
  519WAT      O15507   2.863   2.042   1.087
  519WAT     H115508   2.922   2.073   1.018
  519WAT     H215509   2.922   2.011   1.156
  520WAT      O15510   2.486   4.164   2.298
  520WAT     H115511   2.428   4.110   2.352
  520WAT     H215512   2.486   4.121   2.212
  521WAT      O15513   3.273   2.610  11.310
  521WAT     H115514   3.180   2.592  11.302
  521WAT     H215515   3.307   2.599  11.221
  522WAT      O15516   5.980   5.473   0.246
  522WAT     H115517   6.061   5.456   0.200
  522WAT     H215518   5.967   5.396   0.302
  523WAT      O15519   3.105   0.779  12.677
  523WAT     H115520   3.115   0.872  12.694
  523WAT     H215521   3.194   0.747  12.665
  524WAT      O15522   2.010   1.099   8.125
  524WAT     H115523   1.928   1.119   8.080
  524WAT     H215524   2.006   1.005   8.144
  525WAT      O15525   1.751   2.683   9.655
  525WAT     H115526   1.753   2.662   9.749
  525WAT     H215527   1.753   2.779   9.652
  526WAT      O15528   3.852   0.258   0.736
  526WAT     H115529   3.848   0.340   0.686
  526WAT     H215530   3.823   0.283   0.824
  527WAT      O15531   3.092   4.898   1.291
  527WAT     H115532   3.134   4.846   1.360
  527WAT     H215533   3.157   4.903   1.222
  528WAT      O15534   0.755   5.637   2.965
  528WAT     H115535   0.843   5.641   3.003
  528WAT     H215536   0.754   5.707   2.899
  529WAT      O15537   1.886   1.418   9.909
  529WAT     H115538   1.835   1.340   9.929
  529WAT     H215539   1.823   1.479   9.870
  530WAT      O15540   2.101   5.890   2.526
  530WAT     H115541   2.032   5.824   2.530
  530WAT     H215542   2.147   5.882   2.609
  531WAT      O15543   4.140   2.058  12.259
  531WAT     H115544   4.121   2.142  12.217
  531WAT     H215545   4.148   1.996  12.186
  532WAT      O15546   5.244   1.745   9.848
  532WAT     H115547   5.266   1.719   9.758
  532WAT     H215548   5.149   1.736   9.853
  533WAT      O15549   5.485   5.951  10.228
  533WAT     H115550   5.534   6.029  10.252
  533WAT     H215551   5.552   5.886  10.208
  534WAT      O15552   6.102   0.107   2.809
  534WAT     H115553   6.134   0.113   2.719
  534WAT     H215554   6.174   0.067   2.858
  535WAT      O15555   3.471   2.699   8.758
  535WAT     H115556   3.559   2.694   8.721
  535WAT     H215557   3.430   2.772   8.711
  536WAT      O15558   1.875   2.899  10.520
  536WAT     H115559   1.945   2.835  10.510
  536WAT     H215560   1.804   2.850  10.562
  537WAT      O15561   5.364   0.198  10.558
  537WAT     H115562   5.349   0.283  10.599
  537WAT     H215563   5.318   0.136  10.615
  538WAT      O15564   1.345   4.635   7.541
  538WAT     H115565   1.420   4.670   7.492
  538WAT     H215566   1.298   4.712   7.573
  539WAT      O15567   6.082   0.326  11.630
  539WAT     H115568   6.074   0.275  11.711
  539WAT     H215569   6.056   0.265  11.561
  540WAT      O15570   4.991   2.152   9.367
  540WAT     H115571   5.066   2.119   9.317
  540WAT     H215572   4.925   2.172   9.301
  541WAT      O15573   5.029   0.121   9.407
  541WAT     H115574   5.010   0.053   9.471
  541WAT     H215575   5.037   0.201   9.458
  542WAT      O15576   4.043   3.803   7.759
  542WAT     H115577   3.990   3.734   7.718
  542WAT     H215578   4.026   3.881   7.706
  543WAT      O15579   0.987   5.823  12.562
  543WAT     H115580   1.005   5.739  12.520
  543WAT     H215581   0.942   5.874  12.495
  544WAT      O15582   0.998   4.700   2.327
  544WAT     H115583   1.054   4.685   2.251
  544WAT     H215584   1.053   4.746   2.390
  545WAT      O15585   4.115   4.615   1.261
  545WAT     H115586   4.031   4.579   1.235
  545WAT     H215587   4.156   4.546   1.313
  546WAT      O15588   4.009   4.633   8.839
  546WAT     H115589   3.944   4.567   8.862
  546WAT     H215590   3.990   4.706   8.897
  547WAT      O15591   0.256   6.092   0.849
  547WAT     H115592   0.177   6.070   0.801
  547WAT     H215593   0.226   6.147   0.922
  548WAT      O15594   3.203   4.704   0.922
  548WAT     H115595   3.191   4.720   0.828
  548WAT     H215596   3.139   4.637   0.944
  549WAT      O15597   4.603   3.895  11.632
  549WAT     H115598   4.621   3.946  11.553
  549WAT     H215599   4.508   3.883  11.632
  550WAT      O15600   4.371   6.025   8.539
  550WAT     H115601   4.420   6.005   8.458
  550WAT     H215602   4.292   5.972   8.533
  551WAT      O15603   2.136   1.778  11.094
  551WAT     H115604   2.129   1.855  11.037
  551WAT     H215605   2.143   1.815  11.182
  552WAT      O15606   3.593   5.958   3.290
  552WAT     H115607   3.633   5.897   3.352
  552WAT     H215608   3.665   6.016   3.264
  553WAT      O15609   4.734   0.998   9.141
  553WAT     H115610   4.705   0.915   9.179
  553WAT     H215611   4.664   1.020   9.078
  554WAT      O15612   3.668   5.060  11.855
  554WAT     H115613   3.736   5.111  11.900
  554WAT     H215614   3.671   5.092  11.765
  555WAT      O15615   0.223   5.493   8.988
  555WAT     H115616   0.262   5.412   8.956
  555WAT     H215617   0.222   5.551   8.912
  556WAT      O15618   3.607   5.030  11.562
  556WAT     H115619   3.605   5.020  11.467
  556WAT     H215620   3.551   4.960  11.595
  557WAT      O15621   1.808   2.559   2.134
  557WAT     H115622   1.810   2.632   2.071
  557WAT     H215623   1.896   2.556   2.171
  558WAT      O15624   4.769   3.351   7.957
  558WAT     H115625   4.700   3.386   7.900
  558WAT     H215626   4.741   3.375   8.045
  559WAT      O15627   3.522   3.525   2.783
  559WAT     H115628   3.436   3.564   2.800
  559WAT     H215629   3.566   3.528   2.868
  560WAT      O15630   5.417   3.750  10.063
  560WAT     H115631   5.350   3.720  10.001
  560WAT     H215632   5.435   3.840  10.036
  561WAT      O15633   1.418   1.611   1.950
  561WAT     H115634   1.397   1.563   2.031
  561WAT     H215635   1.334   1.617   1.904
  562WAT      O15636   6.066   0.429   8.527
  562WAT     H115637   6.061   0.525   8.533
  562WAT     H215638   6.104   0.413   8.441
  563WAT      O15639   2.171   4.889   9.152
  563WAT     H115640   2.129   4.921   9.231
  563WAT     H215641   2.120   4.812   9.127
  564WAT      O15642   5.587   1.168  11.091
  564WAT     H115643   5.604   1.167  11.185
  564WAT     H215644   5.646   1.101  11.055
  565WAT      O15645   3.655   3.834   0.498
  565WAT     H115646   3.650   3.809   0.406
  565WAT     H215647   3.744   3.867   0.509
  566WAT      O15648   5.614   4.597   1.166
  566WAT     H115649   5.706   4.621   1.160
  566WAT     H215650   5.611   4.531   1.235
  567WAT      O15651   5.031   0.986   3.416
  567WAT     H115652   5.046   1.053   3.350
  567WAT     H215653   5.118   0.958   3.443
  568WAT      O15654   3.237   3.053   3.390
  568WAT     H115655   3.168   2.999   3.428
  568WAT     H215656   3.198   3.089   3.310
  569WAT      O15657   2.110   4.561   3.639
  569WAT     H115658   2.023   4.556   3.600
  569WAT     H215659   2.157   4.485   3.603
  570WAT      O15660   2.721   5.638   2.923
  570WAT     H115661   2.628   5.613   2.922
  570WAT     H215662   2.721   5.722   2.969
  571WAT      O15663   1.185   4.385   1.076
  571WAT     H115664   1.192   4.339   0.992
  571WAT     H215665   1.218   4.322   1.140
  572WAT      O15666   0.821   2.895  12.081
  572WAT     H115667   0.760   2.900  12.154
  572WAT     H215668   0.819   2.802  12.055
  573WAT      O15669   2.276   0.829   0.425
  573WAT     H115670   2.223   0.808   0.348
  573WAT     H215671   2.296   0.922   0.415
  574WAT      O15672   4.924   3.659  10.128
  574WAT     H115673   5.013   3.675  10.161
  574WAT     H215674   4.890   3.746  10.108
  575WAT      O15675   0.066   1.237   2.009
  575WAT     H115676   0.090   1.319   2.052
  575WAT     H215677   0.038   1.264   1.921
  576WAT      O15678   2.315   1.734  12.113
  576WAT     H115679   2.362   1.795  12.056
  576WAT     H215680   2.375   1.720  12.186
  577WAT      O15681   2.107   5.597   1.287
  577WAT     H115682   2.059   5.533   1.233
  577WAT     H215683   2.064   5.680   1.269
  578WAT      O15684   0.010   4.721   1.171
  578WAT     H115685   0.047   4.762   1.249
  578WAT     H215686   0.083   4.713   1.111
  579WAT      O15687   1.674   3.101  11.774
  579WAT     H115688   1.597   3.045  11.780
  579WAT     H215689   1.676   3.129  11.682
  580WAT      O15690   4.113   1.487   1.960
  580WAT     H115691   4.020   1.507   1.970
  580WAT     H215692   4.121   1.453   1.871
  581WAT      O15693   4.732   4.070   9.271
  581WAT     H115694   4.672   3.995   9.271
  581WAT     H215695   4.739   4.095   9.178
  582WAT      O15696   2.223   4.331   1.105
  582WAT     H115697   2.181   4.256   1.148
  582WAT     H215698   2.233   4.396   1.175
  583WAT      O15699   1.974   0.263   9.887
  583WAT     H115700   2.057   0.216   9.884
  583WAT     H215701   1.987   0.340   9.831
  584WAT      O15702   2.234   2.739   2.497
  584WAT     H115703   2.156   2.688   2.519
  584WAT     H215704   2.305   2.675   2.494
  585WAT      O15705   1.324   3.950   2.829
  585WAT     H115706   1.248   3.992   2.869
  585WAT     H215707   1.297   3.930   2.740
  586WAT      O15708   1.572   5.241   9.160
  586WAT     H115709   1.594   5.154   9.127
  586WAT     H215710   1.654   5.275   9.195
  587WAT      O15711   1.180   3.909   2.577
  587WAT     H115712   1.212   3.991   2.541
  587WAT     H215713   1.129   3.870   2.506
  588WAT      O15714   3.835   1.112   8.929
  588WAT     H115715   3.881   1.048   8.875
  588WAT     H215716   3.891   1.190   8.925
  589WAT      O15717   2.053   2.717  10.375
  589WAT     H115718   2.020   2.794  10.328
  589WAT     H215719   2.048   2.646  10.310
  590WAT      O15720   4.546   0.731   3.762
  590WAT     H115721   4.563   0.655   3.706
  590WAT     H215722   4.544   0.695   3.851
  591WAT      O15723   3.359   6.226   1.468
  591WAT     H115724   3.409   6.200   1.545
  591WAT     H215725   3.275   6.180   1.478
  592WAT      O15726   2.011   0.430   2.330
  592WAT     H115727   2.085   0.369   2.332
  592WAT     H215728   2.040   0.505   2.381
  593WAT      O15729   4.547   0.224   3.980
  593WAT     H115730   4.598   0.280   3.921
  593WAT     H215731   4.526   0.281   4.054
  594WAT      O15732   4.223   5.129  11.131
  594WAT     H115733   4.243   5.058  11.070
  594WAT     H215734   4.275   5.110  11.209
  595WAT      O15735   4.787   3.676  10.948
  595WAT     H115736   4.858   3.612  10.957
  595WAT     H215737   4.707   3.625  10.956
  596WAT      O15738   3.346   5.291   9.229
  596WAT     H115739   3.427   5.275   9.278
  596WAT     H215740   3.371   5.278   9.137
  597WAT      O15741   3.656   0.710  12.583
  597WAT     H115742   3.680   0.659  12.506
  597WAT     H215743   3.739   0.740  12.619
  598WAT      O15744   0.176   0.995   1.764
  598WAT     H115745   0.164   0.919   1.820
  598WAT     H215746   0.231   1.055   1.815
  599WAT      O15747   4.606  -0.013   4.355
  599WAT     H115748   4.593   0.081   4.369
  599WAT     H215749   4.572  -0.029   4.267
  600WAT      O15750   2.705   1.508  10.366
  600WAT     H115751   2.655   1.576  10.321
  600WAT     H215752   2.753   1.556  10.434
  601WAT      O15753   3.226   3.111   0.293
  601WAT     H115754   3.141   3.096   0.334
  601WAT     H215755   3.286   3.052   0.338
  602WAT      O15756   0.256   2.996  11.081
  602WAT     H115757   0.166   2.968  11.065
  602WAT     H215758   0.262   3.082  11.039
  603WAT      O15759   2.781   1.738  12.284
  603WAT     H115760   2.847   1.673  12.259
  603WAT     H215761   2.807   1.817  12.237
  604WAT      O15762   3.545   4.972   2.342
  604WAT     H115763   3.556   4.971   2.247
  604WAT     H215764   3.491   5.049   2.359
  605WAT      O15765   3.277   4.279   9.537
  605WAT     H115766   3.196   4.230   9.523
  605WAT     H215767   3.256   4.340   9.608
  606WAT      O15768   3.299   2.439   3.515
  606WAT     H115769   3.311   2.420   3.608
  606WAT     H215770   3.231   2.377   3.487
  607WAT      O15771   4.849   2.951  11.766
  607WAT     H115772   4.780   2.900  11.724
  607WAT     H215773   4.844   3.037  11.726
  608WAT      O15774   3.627   1.280   8.444
  608WAT     H115775   3.612   1.342   8.373
  608WAT     H215776   3.595   1.196   8.411
  609WAT      O15777   3.579   5.334   1.214
  609WAT     H115778   3.649   5.382   1.170
  609WAT     H215779   3.505   5.394   1.213
  610WAT      O15780   4.380   5.642   0.672
  610WAT     H115781   4.440   5.710   0.641
  610WAT     H215782   4.296   5.686   0.679
  611WAT      O15783   3.899   4.317   7.435
  611WAT     H115784   3.854   4.273   7.507
  611WAT     H215785   3.913   4.406   7.466
  612WAT      O15786   5.348   0.322   0.447
  612WAT     H115787   5.409   0.374   0.499
  612WAT     H215788   5.265   0.369   0.454
  613WAT      O15789   1.218   5.270   7.755
  613WAT     H115790   1.258   5.188   7.785
  613WAT     H215791   1.293   5.329   7.742
  614WAT      O15792   2.759   3.962   9.860
  614WAT     H115793   2.849   3.974   9.889
  614WAT     H215794   2.710   4.032   9.904
  615WAT      O15795   5.961   1.122   1.485
  615WAT     H115796   5.885   1.065   1.478
  615WAT     H215797   6.036   1.062   1.486
  616WAT      O15798   1.709   1.865   1.199
  616WAT     H115799   1.785   1.854   1.142
  616WAT     H215800   1.741   1.842   1.286
  617WAT      O15801   5.704   5.665  12.186
  617WAT     H115802   5.727   5.647  12.277
  617WAT     H215803   5.778   5.631  12.136
  618WAT      O15804   0.847   2.329   8.118
  618WAT     H115805   0.824   2.284   8.037
  618WAT     H215806   0.806   2.277   8.187
  619WAT      O15807   3.161   0.460   3.120
  619WAT     H115808   3.175   0.473   3.026
  619WAT     H215809   3.114   0.377   3.125
  620WAT      O15810   5.654   1.107   8.788
  620WAT     H115811   5.649   1.045   8.715
  620WAT     H215812   5.563   1.116   8.818
  621WAT      O15813   4.413   5.067   8.620
  621WAT     H115814   4.319   5.081   8.632
  621WAT     H215815   4.453   5.111   8.695
  622WAT      O15816   4.361   0.017  10.404
  622WAT     H115817   4.419  -0.032  10.462
  622WAT     H215818   4.412   0.094  10.378
  623WAT      O15819   0.695   4.578  11.089
  623WAT     H115820   0.783   4.616  11.092
  623WAT     H215821   0.672   4.565  11.181
  624WAT      O15822   5.487   4.338  11.098
  624WAT     H115823   5.479   4.416  11.152
  624WAT     H215824   5.439   4.359  11.018
  625WAT      O15825   0.723   4.018   4.323
  625WAT     H115826   0.770   3.987   4.400
  625WAT     H215827   0.699   4.108   4.344
  626WAT      O15828   4.602   3.223   1.763
  626WAT     H115829   4.606   3.292   1.829
  626WAT     H215830   4.693   3.202   1.744
  627WAT      O15831   5.104   4.381   9.454
  627WAT     H115832   5.112   4.311   9.389
  627WAT     H215833   5.180   4.437   9.439
  628WAT      O15834   5.241   1.095   1.884
  628WAT     H115835   5.310   1.041   1.922
  628WAT     H215836   5.272   1.115   1.796
  629WAT      O15837   2.457   5.691   0.151
  629WAT     H115838   2.537   5.742   0.164
  629WAT     H215839   2.426   5.673   0.239
  630WAT      O15840   3.861   4.124   8.455
  630WAT     H115841   3.858   4.066   8.379
  630WAT     H215842   3.925   4.191   8.432
  631WAT      O15843   3.804   4.818  12.100
  631WAT     H115844   3.746   4.797  12.026
  631WAT     H215845   3.852   4.737  12.117
  632WAT      O15846   4.988   1.181  12.352
  632WAT     H115847   5.026   1.093  12.349
  632WAT     H215848   5.006   1.218  12.266
  633WAT      O15849   0.685   0.657  12.065
  633WAT     H115850   0.731   0.740  12.062
  633WAT     H215851   0.616   0.665  12.000
  634WAT      O15852   2.659   1.362   8.917
  634WAT     H115853   2.692   1.450   8.896
  634WAT     H215854   2.736   1.315   8.948
  635WAT      O15855   1.339   3.646  11.559
  635WAT     H115856   1.350   3.616  11.649
  635WAT     H215857   1.330   3.741  11.566
  636WAT      O15858   3.015   5.566   8.008
  636WAT     H115859   3.039   5.541   7.919
  636WAT     H215860   2.925   5.537   8.017
  637WAT      O15861   4.000   5.443  11.782
  637WAT     H115862   3.965   5.524  11.820
  637WAT     H215863   3.936   5.376  11.805
  638WAT      O15864   2.715   4.334  11.253
  638WAT     H115865   2.717   4.301  11.343
  638WAT     H215866   2.627   4.370  11.243
  639WAT      O15867   3.018   4.456   9.183
  639WAT     H115868   2.929   4.482   9.209
  639WAT     H215869   3.045   4.394   9.251
  640WAT      O15870   1.828   5.224  10.659
  640WAT     H115871   1.858   5.257  10.574
  640WAT     H215872   1.872   5.280  10.723
  641WAT      O15873   4.701   5.131   8.444
  641WAT     H115874   4.634   5.108   8.509
  641WAT     H215875   4.687   5.069   8.373
  642WAT      O15876   1.013   1.169   8.971
  642WAT     H115877   1.031   1.084   9.012
  642WAT     H215878   0.936   1.202   9.018
  643WAT      O15879   3.238   5.715   3.187
  643WAT     H115880   3.267   5.805   3.178
  643WAT     H215881   3.148   5.715   3.154
  644WAT      O15882   3.276   0.365  10.006
  644WAT     H115883   3.187   0.340  10.033
  644WAT     H215884   3.325   0.283  10.006
  645WAT      O15885   4.507   2.476   2.637
  645WAT     H115886   4.464   2.497   2.554
  645WAT     H215887   4.585   2.531   2.638
  646WAT      O15888   5.502   5.779  11.479
  646WAT     H115889   5.596   5.787  11.492
  646WAT     H215890   5.466   5.860  11.514
  647WAT      O15891   4.181   0.979  11.543
  647WAT     H115892   4.217   1.032  11.614
  647WAT     H215893   4.089   0.967  11.567
  648WAT      O15894   1.946   1.444   0.893
  648WAT     H115895   1.877   1.473   0.833
  648WAT     H215896   1.945   1.349   0.888
  649WAT      O15897   1.878   3.626   4.816
  649WAT     H115898   1.840   3.554   4.866
  649WAT     H215899   1.973   3.619   4.832
  650WAT      O15900   4.742   0.852  12.099
  650WAT     H115901   4.786   0.921  12.050
  650WAT     H215902   4.743   0.777  12.040
  651WAT      O15903   2.602   2.325   9.416
  651WAT     H115904   2.573   2.409   9.452
  651WAT     H215905   2.544   2.310   9.342
  652WAT      O15906   5.746   4.931   9.877
  652WAT     H115907   5.770   4.924   9.969
  652WAT     H215908   5.829   4.944   9.832
  653WAT      O15909   4.453   0.074   4.630
  653WAT     H115910   4.504   0.104   4.706
  653WAT     H215911   4.482   0.130   4.558
  654WAT      O15912   3.936   4.113   8.741
  654WAT     H115913   3.936   4.102   8.646
  654WAT     H215914   3.922   4.206   8.755
  655WAT      O15915   1.243   2.799   2.663
  655WAT     H115916   1.299   2.869   2.630
  655WAT     H215917   1.165   2.803   2.609
  656WAT      O15918   5.696   5.561   9.507
  656WAT     H115919   5.685   5.536   9.415
  656WAT     H215920   5.652   5.492   9.556
  657WAT      O15921   2.951   1.106   2.431
  657WAT     H115922   2.978   1.135   2.519
  657WAT     H215923   2.870   1.154   2.414
  658WAT      O15924   2.333   1.160   1.664
  658WAT     H115925   2.379   1.081   1.636
  658WAT     H215926   2.250   1.159   1.616
  659WAT      O15927   4.531   5.725   3.212
  659WAT     H115928   4.496   5.706   3.125
  659WAT     H215929   4.507   5.816   3.229
  660WAT      O15930   5.447   1.091  11.539
  660WAT     H115931   5.436   1.006  11.497
  660WAT     H215932   5.502   1.074  11.615
  661WAT      O15933   1.237   4.584   3.604
  661WAT     H115934   1.226   4.592   3.509
  661WAT     H215935   1.331   4.578   3.617
  662WAT      O15936   5.067   4.880   1.224
  662WAT     H115937   5.145   4.935   1.230
  662WAT     H215938   5.047   4.876   1.131
  663WAT      O15939   5.334   4.118   3.096
  663WAT     H115940   5.424   4.114   3.062
  663WAT     H215941   5.304   4.028   3.095
  664WAT      O15942   1.868   0.356   8.468
  664WAT     H115943   1.884   0.339   8.376
  664WAT     H215944   1.773   0.346   8.478
  665WAT      O15945   0.609   6.214   1.003
  665WAT     H115946   0.594   6.149   1.072
  665WAT     H215947   0.584   6.297   1.042
  666WAT      O15948   2.724   4.592   1.732
  666WAT     H115949   2.806   4.631   1.702
  666WAT     H215950   2.660   4.613   1.665
  667WAT      O15951   2.608   0.911   1.189
  667WAT     H115952   2.616   0.998   1.149
  667WAT     H215953   2.696   0.892   1.222
  668WAT      O15954   3.665   5.935   9.534
  668WAT     H115955   3.687   6.028   9.546
  668WAT     H215956   3.675   5.896   9.620
  669WAT      O15957   4.276   0.267   0.195
  669WAT     H115958   4.212   0.228   0.255
  669WAT     H215959   4.339   0.311   0.251
  670WAT      O15960   4.781   4.070  10.536
  670WAT     H115961   4.753   4.030  10.453
  670WAT     H215962   4.833   4.001  10.579
  671WAT      O15963   3.175   3.471   2.005
  671WAT     H115964   3.220   3.387   1.996
  671WAT     H215965   3.246   3.536   2.009
  672WAT      O15966   6.229   0.983   2.856
  672WAT     H115967   6.139   0.966   2.884
  672WAT     H215968   6.221   1.046   2.785
  673WAT      O15969   1.138   4.511  11.638
  673WAT     H115970   1.132   4.597  11.679
  673WAT     H215971   1.167   4.453  11.707
  674WAT      O15972   4.065   0.971   2.442
  674WAT     H115973   4.086   1.002   2.530
  674WAT     H215974   4.022   0.887   2.455
  675WAT      O15975   2.284   1.978   2.659
  675WAT     H115976   2.308   2.029   2.581
  675WAT     H215977   2.280   1.888   2.628
  676WAT      O15978   6.214   4.139   2.542
  676WAT     H115979   6.183   4.136   2.633
  676WAT     H215980   6.234   4.231   2.526
  677WAT      O15981   0.813   5.867   1.190
  677WAT     H115982   0.842   5.828   1.272
  677WAT     H215983   0.891   5.869   1.135
  678WAT      O15984   0.977   0.458   2.705
  678WAT     H115985   1.009   0.494   2.788
  678WAT     H215986   0.914   0.391   2.732
  679WAT      O15987   2.887   1.779   8.884
  679WAT     H115988   2.972   1.823   8.888
  679WAT     H215989   2.908   1.690   8.856
  680WAT      O15990   1.468   2.202   2.449
  680WAT     H115991   1.490   2.281   2.498
  680WAT     H215992   1.382   2.176   2.483
  681WAT      O15993   3.526   0.894  12.114
  681WAT     H115994   3.489   0.975  12.150
  681WAT     H215995   3.589   0.924  12.049
  682WAT      O15996   3.483   4.075   4.550
  682WAT     H115997   3.557   4.082   4.490
  682WAT     H215998   3.436   4.157   4.541
  683WAT      O15999   3.982   2.291  11.002
  683WAT     H116000   3.923   2.365  10.989
  683WAT     H216001   4.016   2.272  10.914
  684WAT      O16002   1.593   2.523  12.178
  684WAT     H116003   1.541   2.467  12.235
  684WAT     H216004   1.678   2.530  12.222
  685WAT      O16005   5.137   5.543  10.975
  685WAT     H116006   5.119   5.498  10.893
  685WAT     H216007   5.164   5.631  10.949
  686WAT      O16008   6.054   3.230   3.270
  686WAT     H116009   6.124   3.249   3.333
  686WAT     H216010   6.092   3.168   3.209
  687WAT      O16011   2.730   3.414   9.419
  687WAT     H116012   2.660   3.465   9.377
  687WAT     H216013   2.717   3.325   9.387
  688WAT      O16014   2.384   2.826   1.137
  688WAT     H116015   2.427   2.826   1.051
  688WAT     H216016   2.452   2.853   1.198
  689WAT      O16017   2.182   0.730  12.667
  689WAT     H116018   2.275   0.712  12.650
  689WAT     H216019   2.139   0.646  12.656
  690WAT      O16020   1.273   2.153   1.401
  690WAT     H116021   1.227   2.233   1.427
  690WAT     H216022   1.225   2.083   1.445
  691WAT      O16023   0.315   5.618  12.213
  691WAT     H116024   0.322   5.701  12.165
  691WAT     H216025   0.223   5.614  12.239
  692WAT      O16026   3.158   1.994   2.106
  692WAT     H116027   3.104   2.068   2.133
  692WAT     H216028   3.245   2.032   2.092
  693WAT      O16029   3.411   3.582   9.283
  693WAT     H116030   3.497   3.612   9.253
  693WAT     H216031   3.427   3.494   9.317
  694WAT      O16032   2.851   0.241   8.201
  694WAT     H116033   2.842   0.302   8.274
  694WAT     H216034   2.783   0.268   8.139
  695WAT      O16035   1.162   4.207   0.839
  695WAT     H116036   1.251   4.175   0.826
  695WAT     H216037   1.141   4.253   0.758
  696WAT      O16038   1.686   0.181   9.277
  696WAT     H116039   1.617   0.116   9.292
  696WAT     H216040   1.764   0.129   9.257
  697WAT      O16041   5.118   6.138   8.982
  697WAT     H116042   5.023   6.131   8.989
  697WAT     H216043   5.145   6.056   8.941
  698WAT      O16044   0.330   1.767   0.501
  698WAT     H116045   0.296   1.722   0.579
  698WAT     H216046   0.272   1.842   0.490
  699WAT      O16047   3.593   0.131   0.269
  699WAT     H116048   3.521   0.189   0.247
  699WAT     H216049   3.632   0.169   0.348
  700WAT      O16050   5.399   4.841   1.157
  700WAT     H116051   5.393   4.749   1.179
  700WAT     H216052   5.478   4.872   1.201
  701WAT      O16053   2.959   1.867  10.563
  701WAT     H116054   2.932   1.896  10.651
  701WAT     H216055   2.984   1.948  10.519
  702WAT      O16056   5.186   1.698   3.015
  702WAT     H116057   5.203   1.607   2.991
  702WAT     H216058   5.218   1.706   3.105
  703WAT      O16059   5.835   3.198   3.001
  703WAT     H116060   5.748   3.237   2.987
  703WAT     H216061   5.884   3.266   3.048
  704WAT      O16062   4.035   2.065  11.128
  704WAT     H116063   4.009   2.148  11.088
  704WAT     H216064   4.048   2.006  11.054
  705WAT      O16065   2.085   2.733   2.957
  705WAT     H116066   2.008   2.679   2.971
  705WAT     H216067   2.080   2.801   3.024
  706WAT      O16068   2.507   1.022  12.402
  706WAT     H116069   2.579   1.046  12.344
  706WAT     H216070   2.549   0.982  12.478
  707WAT      O16071   5.681   2.813   4.231
  707WAT     H116072   5.775   2.823   4.219
  707WAT     H216073   5.643   2.893   4.194
  708WAT      O16074   2.652   5.851  11.984
  708WAT     H116075   2.743   5.825  11.973
  708WAT     H216076   2.629   5.896  11.903
  709WAT      O16077   3.971   1.349   8.965
  709WAT     H116078   3.892   1.401   8.978
  709WAT     H216079   4.033   1.382   9.031
  710WAT      O16080   3.222   2.401  12.567
  710WAT     H116081   3.262   2.461  12.630
  710WAT     H216082   3.261   2.316  12.585
  711WAT      O16083   1.035   1.923  10.675
  711WAT     H116084   1.099   1.878  10.730
  711WAT     H216085   1.018   1.863  10.603
  712WAT      O16086   5.750   2.291   9.093
  712WAT     H116087   5.718   2.202   9.083
  712WAT     H216088   5.782   2.315   9.006
  713WAT      O16089   4.507   1.778   2.613
  713WAT     H116090   4.513   1.753   2.705
  713WAT     H216091   4.464   1.864   2.615
  714WAT      O16092   5.993   6.131   3.812
  714WAT     H116093   6.033   6.121   3.899
  714WAT     H216094   5.901   6.147   3.831
  715WAT      O16095   0.350   5.207   0.680
  715WAT     H116096   0.343   5.301   0.661
  715WAT     H216097   0.344   5.202   0.776
  716WAT      O16098   0.346   0.435   9.461
  716WAT     H116099   0.339   0.495   9.387
  716WAT     H216100   0.270   0.454   9.516
  717WAT      O16101   5.926   3.715   7.816
  717WAT     H116102   5.910   3.798   7.859
  717WAT     H216103   5.910   3.649   7.884
  718WAT      O16104   5.188   4.570  10.748
  718WAT     H116105   5.244   4.563  10.825
  718WAT     H216106   5.250   4.568  10.674
  719WAT      O16107   2.706   5.082  11.237
  719WAT     H116108   2.624   5.036  11.221
  719WAT     H216109   2.703   5.160  11.181
  720WAT      O16110   5.251   3.844   3.041
  720WAT     H116111   5.320   3.810   3.098
  720WAT     H216112   5.290   3.845   2.954
  721WAT      O16113   2.558   3.731   1.373
  721WAT     H116114   2.534   3.639   1.381
  721WAT     H216115   2.646   3.730   1.335
  722WAT      O16116   5.390   2.429   3.207
  722WAT     H116117   5.476   2.387   3.207
  722WAT     H216118   5.358   2.420   3.117
  723WAT      O16119   5.734   1.399  11.539
  723WAT     H116120   5.703   1.351  11.615
  723WAT     H216121   5.825   1.421  11.559
  724WAT      O16122   1.760   5.233   3.251
  724WAT     H116123   1.692   5.269   3.193
  724WAT     H216124   1.813   5.177   3.194
  725WAT      O16125   0.361   5.044   9.240
  725WAT     H116126   0.450   5.057   9.209
  725WAT     H216127   0.351   5.107   9.312
  726WAT      O16128   6.102   1.398  10.334
  726WAT     H116129   6.016   1.409  10.376
  726WAT     H216130   6.083   1.355  10.251
  727WAT      O16131   4.007   0.179  10.230
  727WAT     H116132   3.936   0.124  10.263
  727WAT     H216133   4.009   0.254  10.290
  728WAT      O16134   5.045   1.518   0.081
  728WAT     H116135   5.140   1.513   0.075
  728WAT     H216136   5.013   1.476   0.001
  729WAT      O16137   4.304   5.054   1.679
  729WAT     H116138   4.252   5.126   1.644
  729WAT     H216139   4.303   4.987   1.610
  730WAT      O16140   2.343   5.838   3.052
  730WAT     H116141   2.344   5.883   2.967
  730WAT     H216142   2.359   5.908   3.116
  731WAT      O16143   6.248   2.668  11.691
  731WAT     H116144   6.269   2.575  11.680
  731WAT     H216145   6.183   2.685  11.623
  732WAT      O16146   4.514   5.989  12.015
  732WAT     H116147   4.500   6.079  12.042
  732WAT     H216148   4.428   5.957  11.988
  733WAT      O16149   2.493   1.535  11.266
  733WAT     H116150   2.478   1.590  11.190
  733WAT     H216151   2.427   1.563  11.329
  734WAT      O16152   0.856   6.049   2.353
  734WAT     H116153   0.779   6.001   2.385
  734WAT     H216154   0.820   6.115   2.293
  735WAT      O16155   4.847   0.607  10.166
  735WAT     H116156   4.803   0.623  10.082
  735WAT     H216157   4.919   0.548  10.144
  736WAT      O16158   4.528   1.640   3.427
  736WAT     H116159   4.550   1.612   3.338
  736WAT     H216160   4.603   1.614   3.480
  737WAT      O16161   4.643   5.981  12.254
  737WAT     H116162   4.602   5.985  12.168
  737WAT     H216163   4.719   5.925  12.242
  738WAT      O16164   6.189   5.038   7.639
  738WAT     H116165   6.192   5.127   7.605
  738WAT     H216166   6.254   5.037   7.710
  739WAT      O16167   5.616   4.423   1.379
  739WAT     H116168   5.703   4.383   1.385
  739WAT     H216169   5.605   4.468   1.463
  740WAT      O16170   5.142   0.848   0.318
  740WAT     H116171   5.048   0.869   0.316
  740WAT     H216172   5.185   0.925   0.281
  741WAT      O16173   2.290   5.399  10.054
  741WAT     H116174   2.318   5.470   9.996
  741WAT     H216175   2.371   5.366  10.093
  742WAT      O16176   0.902   4.591   0.869
  742WAT     H116177   0.836   4.659   0.885
  742WAT     H216178   0.860   4.531   0.808
  743WAT      O16179   0.860   4.221   2.082
  743WAT     H116180   0.942   4.179   2.109
  743WAT     H216181   0.810   4.151   2.039
  744WAT      O16182   0.698   5.970   9.328
  744WAT     H116183   0.772   6.013   9.371
  744WAT     H216184   0.694   6.011   9.241
  745WAT      O16185   2.090   3.551   4.241
  745WAT     H116186   2.166   3.565   4.298
  745WAT     H216187   2.128   3.525   4.157
  746WAT      O16188   2.373   2.365   2.646
  746WAT     H116189   2.347   2.442   2.697
  746WAT     H216190   2.382   2.296   2.711
  747WAT      O16191   3.771   0.775   2.986
  747WAT     H116192   3.859   0.800   2.961
  747WAT     H216193   3.716   0.848   2.957
  748WAT      O16194   2.974   0.309   0.893
  748WAT     H116195   3.063   0.327   0.923
  748WAT     H216196   2.953   0.383   0.836
  749WAT      O16197   1.181   0.744   2.088
  749WAT     H116198   1.178   0.652   2.064
  749WAT     H216199   1.139   0.789   2.015
  750WAT      O16200   0.473   0.852  10.427
  750WAT     H116201   0.399   0.824  10.374
  750WAT     H216202   0.548   0.846  10.368
  751WAT      O16203   2.791   5.842   1.452
  751WAT     H116204   2.767   5.916   1.395
  751WAT     H216205   2.714   5.785   1.450
  752WAT      O16206   4.243   5.125  11.903
  752WAT     H116207   4.191   5.062  11.854
  752WAT     H216208   4.333   5.095  11.895
  753WAT      O16209   4.109   0.235  11.518
  753WAT     H116210   4.068   0.298  11.577
  753WAT     H216211   4.046   0.163  11.512
  754WAT      O16212   4.324   1.642   2.009
  754WAT     H116213   4.250   1.583   1.997
  754WAT     H216214   4.322   1.700   1.933
  755WAT      O16215   0.983   5.630   0.709
  755WAT     H116216   0.928   5.603   0.782
  755WAT     H216217   0.969   5.725   0.702
  756WAT      O16218   2.502   3.968  11.472
  756WAT     H116219   2.427   4.009  11.428
  756WAT     H216220   2.471   3.881  11.495
  757WAT      O16221   1.019   0.633   1.647
  757WAT     H116222   0.944   0.660   1.594
  757WAT     H216223   1.004   0.540   1.665
  758WAT      O16224   6.057   0.438   1.159
  758WAT     H116225   6.031   0.432   1.067
  758WAT     H216226   5.985   0.486   1.200
  759WAT      O16227   5.413   2.203   9.112
  759WAT     H116228   5.477   2.261   9.154
  759WAT     H216229   5.428   2.117   9.153
  760WAT      O16230   5.896   6.079   8.420
  760WAT     H116231   5.831   6.121   8.476
  760WAT     H216232   5.864   5.989   8.409
  761WAT      O16233   3.628   2.573   0.984
  761WAT     H116234   3.723   2.582   0.982
  761WAT     H216235   3.596   2.658   1.013
  762WAT      O16236   2.302   2.293   0.200
  762WAT     H116237   2.206   2.300   0.199
  762WAT     H216238   2.333   2.376   0.164
  763WAT      O16239   0.072   4.432  12.399
  763WAT     H116240   0.113   4.384  12.470
  763WAT     H216241   0.100   4.387  12.319
  764WAT      O16242   4.541   2.836  10.681
  764WAT     H116243   4.602   2.780  10.632
  764WAT     H216244   4.475   2.776  10.715
  765WAT      O16245   3.517   6.208  12.392
  765WAT     H116246   3.525   6.180  12.301
  765WAT     H216247   3.551   6.134  12.443
  766WAT      O16248   5.062   5.172  11.968
  766WAT     H116249   5.125   5.236  11.999
  766WAT     H216250   5.098   5.141  11.885
  767WAT      O16251   2.311   2.460  11.817
  767WAT     H116252   2.224   2.489  11.847
  767WAT     H216253   2.292   2.399  11.745
  768WAT      O16254   5.676   6.090   1.840
  768WAT     H116255   5.705   6.153   1.905
  768WAT     H216256   5.677   6.138   1.757
  769WAT      O16257   5.061   3.371   8.886
  769WAT     H116258   5.138   3.376   8.943
  769WAT     H216259   5.097   3.352   8.799
  770WAT      O16260   4.062   4.272   1.134
  770WAT     H116261   4.094   4.322   1.060
  770WAT     H216262   4.114   4.302   1.209
  771WAT      O16263   1.045   1.237   0.095
  771WAT     H116264   0.980   1.305   0.076
  771WAT     H216265   1.092   1.226   0.013
  772WAT      O16266   5.141   4.188  10.557
  772WAT     H116267   5.221   4.138  10.543
  772WAT     H216268   5.076   4.124  10.585
  773WAT      O16269   1.693   0.401  12.448
  773WAT     H116270   1.673   0.490  12.479
  773WAT     H216271   1.623   0.381  12.386
  774WAT      O16272   4.198   5.971   1.048
  774WAT     H116273   4.117   6.006   1.011
  774WAT     H216274   4.267   6.018   1.003
  775WAT      O16275   4.283   2.270   0.341
  775WAT     H116276   4.317   2.267   0.251
  775WAT     H216277   4.232   2.189   0.350
  776WAT      O16278   2.998   6.140   2.959
  776WAT     H116279   3.072   6.191   2.991
  776WAT     H216280   2.930   6.204   2.939
  777WAT      O16281   4.610   2.276  11.247
  777WAT     H116282   4.605   2.368  11.219
  777WAT     H216283   4.601   2.280  11.342
  778WAT      O16284   4.409   6.054  12.370
  778WAT     H116285   4.388   6.136  12.415
  778WAT     H216286   4.490   6.073  12.322
  779WAT      O16287   1.523   4.351   8.869
  779WAT     H116288   1.468   4.317   8.939
  779WAT     H216289   1.552   4.272   8.821
  780WAT      O16290   1.558   4.201   9.564
  780WAT     H116291   1.560   4.167   9.653
  780WAT     H216292   1.547   4.123   9.509
  781WAT      O16293   5.462   3.941   8.982
  781WAT     H116294   5.394   3.984   9.034
  781WAT     H216295   5.434   3.953   8.891
  782WAT      O16296   4.341   3.039  11.289
  782WAT     H116297   4.395   3.047  11.210
  782WAT     H216298   4.327   2.945  11.299
  783WAT      O16299   3.722   4.181   8.065
  783WAT     H116300   3.748   4.222   7.982
  783WAT     H216301   3.735   4.249   8.131
  784WAT      O16302   0.733   4.642   3.395
  784WAT     H116303   0.638   4.647   3.385
  784WAT     H216304   0.746   4.624   3.489
  785WAT      O16305   5.426   3.618  11.391
  785WAT     H116306   5.499   3.626  11.452
  785WAT     H216307   5.463   3.637  11.305
  786WAT      O16308   0.672   2.899   8.334
  786WAT     H116309   0.704   2.973   8.281
  786WAT     H216310   0.580   2.892   8.311
  787WAT      O16311   2.422   2.882   9.116
  787WAT     H116312   2.425   2.976   9.128
  787WAT     H216313   2.491   2.863   9.052
  788WAT      O16314   1.680   4.357   3.363
  788WAT     H116315   1.620   4.293   3.401
  788WAT     H216316   1.668   4.349   3.269
  789WAT      O16317   1.233   3.162   4.289
  789WAT     H116318   1.309   3.136   4.342
  789WAT     H216319   1.165   3.099   4.312
  790WAT      O16320   6.227   0.665   1.190
  790WAT     H116321   6.192   0.751   1.165
  790WAT     H216322   6.160   0.603   1.163
  791WAT      O16323   1.904   6.181   4.346
  791WAT     H116324   1.998   6.162   4.349
  791WAT     H216325   1.885   6.219   4.432
  792WAT      O16326   1.661   1.914   9.247
  792WAT     H116327   1.743   1.865   9.238
  792WAT     H216328   1.657   1.936   9.340
  793WAT      O16329   5.304   1.117  12.408
  793WAT     H116330   5.248   1.039  12.412
  793WAT     H216331   5.286   1.163  12.490
  794WAT      O16332   4.013   2.117   3.356
  794WAT     H116333   4.023   2.131   3.450
  794WAT     H216334   4.086   2.061   3.332
  795WAT      O16335   2.790   0.225  12.233
  795WAT     H116336   2.836   0.146  12.261
  795WAT     H216337   2.698   0.200  12.232
  796WAT      O16338   2.363   2.170   0.416
  796WAT     H116339   2.458   2.171   0.404
  796WAT     H216340   2.329   2.212   0.337
  797WAT      O16341   2.125   1.503  11.986
  797WAT     H116342   2.050   1.538  12.033
  797WAT     H216343   2.175   1.580  11.960
  798WAT      O16344   2.029   3.792  11.675
  798WAT     H116345   1.936   3.802  11.696
  798WAT     H216346   2.063   3.881  11.671
  799WAT      O16347   1.456   5.340   9.513
  799WAT     H116348   1.390   5.301   9.456
  799WAT     H216349   1.405   5.382   9.582
  800WAT      O16350   3.942   1.578  12.221
  800WAT     H116351   3.980   1.500  12.262
  800WAT     H216352   3.980   1.651  12.269
  801WAT      O16353   5.394   1.450  10.204
  801WAT     H116354   5.355   1.525  10.159
  801WAT     H216355   5.486   1.475  10.217
  802WAT      O16356   1.935   3.153   1.513
  802WAT     H116357   1.893   3.239   1.522
  802WAT     H216358   1.896   3.115   1.435
  803WAT      O16359   2.312   3.676   0.223
  803WAT     H116360   2.365   3.665   0.301
  803WAT     H216361   2.226   3.702   0.256
  804WAT      O16362   1.677   3.660   3.665
  804WAT     H116363   1.652   3.645   3.756
  804WAT     H216364   1.726   3.582   3.640
  805WAT      O16365   2.441   0.114   3.147
  805WAT     H116366   2.430   0.209   3.143
  805WAT     H216367   2.360   0.081   3.186
  806WAT      O16368   5.865   1.813  10.963
  806WAT     H116369   5.837   1.791  10.874
  806WAT     H216370   5.899   1.902  10.956
  807WAT      O16371   5.461   4.902   4.295
  807WAT     H116372   5.398   4.841   4.334
  807WAT     H216373   5.533   4.905   4.359
  808WAT      O16374   3.497   5.803   1.918
  808WAT     H116375   3.546   5.727   1.949
  808WAT     H216376   3.479   5.853   1.997
  809WAT      O16377   3.412   0.130   8.411
  809WAT     H116378   3.359   0.189   8.466
  809WAT     H216379   3.502   0.144   8.442
  810WAT      O16380   2.039   5.570   9.310
  810WAT     H116381   2.088   5.548   9.389
  810WAT     H216382   1.963   5.511   9.312
  811WAT      O16383   0.584   4.190   2.826
  811WAT     H116384   0.647   4.182   2.897
  811WAT     H216385   0.499   4.175   2.868
  812WAT      O16386   5.706   3.384   3.632
  812WAT     H116387   5.756   3.410   3.555
  812WAT     H216388   5.675   3.467   3.669
  813WAT      O16389   1.092   5.128  10.213
  813WAT     H116390   1.009   5.081  10.204
  813WAT     H216391   1.121   5.141  10.122
  814WAT      O16392   1.177   0.526   8.485
  814WAT     H116393   1.267   0.556   8.476
  814WAT     H216394   1.126   0.584   8.428
  815WAT      O16395   4.267   4.954   0.104
  815WAT     H116396   4.320   4.978   0.180
  815WAT     H216397   4.274   4.859   0.099
  816WAT      O16398   0.902   2.647   9.528
  816WAT     H116399   0.869   2.576   9.582
  816WAT     H216400   0.825   2.696   9.501
  817WAT      O16401   5.203   3.759  11.840
  817WAT     H116402   5.112   3.728  11.832
  817WAT     H216403   5.256   3.681  11.823
  818WAT      O16404   1.830   3.959   3.932
  818WAT     H116405   1.818   4.054   3.938
  818WAT     H216406   1.741   3.924   3.929
  819WAT      O16407   2.048   3.108  12.351
  819WAT     H116408   2.140   3.088  12.369
  819WAT     H216409   2.050   3.196  12.313
  820WAT      O16410   2.154   0.921  10.282
  820WAT     H116411   2.163   1.015  10.297
  820WAT     H216412   2.242   0.891  10.261
  821WAT      O16413   2.402   3.418  12.479
  821WAT     H116414   2.494   3.394  12.485
  821WAT     H216415   2.392   3.492  12.539
  822WAT      O16416   3.336   5.471   1.266
  822WAT     H116417   3.328   5.442   1.357
  822WAT     H216418   3.263   5.532   1.254
  823WAT      O16419   2.031   3.625   1.814
  823WAT     H116420   2.118   3.620   1.854
  823WAT     H216421   1.981   3.556   1.857
  824WAT      O16422   3.341   3.239   9.943
  824WAT     H116423   3.295   3.217  10.024
  824WAT     H216424   3.286   3.203   9.873
  825WAT      O16425   4.318   2.867   2.322
  825WAT     H116426   4.238   2.824   2.351
  825WAT     H216427   4.343   2.819   2.243
  826WAT      O16428   3.514   3.392  12.689
  826WAT     H116429   3.522   3.446  12.611
  826WAT     H216430   3.426   3.411  12.723
  827WAT      O16431   2.685   4.480   0.740
  827WAT     H116432   2.739   4.436   0.675
  827WAT     H216433   2.719   4.570   0.743
  828WAT      O16434   3.977   4.470   9.785
  828WAT     H116435   4.043   4.485   9.717
  828WAT     H216436   4.026   4.466   9.866
  829WAT      O16437   3.509   5.300  11.371
  829WAT     H116438   3.457   5.377  11.350
  829WAT     H216439   3.557   5.280  11.291
  830WAT      O16440   0.120   1.037  10.754
  830WAT     H116441   0.187   0.977  10.787
  830WAT     H216442   0.083   0.992  10.677
  831WAT      O16443   1.968   1.690   2.845
  831WAT     H116444   1.924   1.762   2.890
  831WAT     H216445   1.943   1.612   2.894
  832WAT      O16446   5.462   1.472   9.775
  832WAT     H116447   5.468   1.447   9.683
  832WAT     H216448   5.550   1.498   9.799
  833WAT      O16449   2.674   0.889   0.765
  833WAT     H116450   2.616   0.831   0.716
  833WAT     H216451   2.630   0.903   0.849
  834WAT      O16452   5.532   3.654   1.287
  834WAT     H116453   5.591   3.637   1.214
  834WAT     H216454   5.530   3.749   1.295
  835WAT      O16455   2.190   1.554   0.863
  835WAT     H116456   2.196   1.615   0.937
  835WAT     H216457   2.103   1.515   0.871
  836WAT      O16458   1.927   0.623   8.917
  836WAT     H116459   1.908   0.548   8.973
  836WAT     H216460   2.015   0.608   8.883
  837WAT      O16461   0.085   3.973   1.999
  837WAT     H116462   0.142   3.902   2.028
  837WAT     H216463   0.123   4.052   2.038
  838WAT      O16464   0.340   1.913   3.609
  838WAT     H116465   0.345   2.009   3.613
  838WAT     H216466   0.419   1.887   3.563
  839WAT      O16467   4.478   6.007   3.499
  839WAT     H116468   4.563   5.971   3.523
  839WAT     H216469   4.479   6.097   3.531
  840WAT      O16470   2.198   4.964   4.043
  840WAT     H116471   2.142   5.039   4.025
  840WAT     H216472   2.188   4.907   3.968
  841WAT      O16473   1.946   0.075   1.019
  841WAT     H116474   1.911   0.026   0.944
  841WAT     H216475   1.903   0.037   1.095
  842WAT      O16476   3.841   2.707   0.458
  842WAT     H116477   3.762   2.663   0.426
  842WAT     H216478   3.890   2.729   0.379
  843WAT      O16479   4.000   0.463  12.045
  843WAT     H116480   4.063   0.438  12.113
  843WAT     H216481   3.914   0.447  12.085
  844WAT      O16482   0.745   4.392   2.938
  844WAT     H116483   0.809   4.449   2.897
  844WAT     H216484   0.749   4.414   3.031
  845WAT      O16485   2.467   0.660   1.133
  845WAT     H116486   2.392   0.698   1.087
  845WAT     H216487   2.506   0.734   1.180
  846WAT      O16488   6.222   2.911  12.080
  846WAT     H116489   6.146   2.968  12.086
  846WAT     H216490   6.274   2.947  12.008
  847WAT      O16491   2.199   1.235   9.181
  847WAT     H116492   2.234   1.323   9.163
  847WAT     H216493   2.260   1.176   9.137
  848WAT      O16494   3.264   3.684   3.078
  848WAT     H116495   3.178   3.697   3.118
  848WAT     H216496   3.298   3.605   3.121
  849WAT      O16497   0.169   5.673   2.650
  849WAT     H116498   0.088   5.713   2.681
  849WAT     H216499   0.142   5.617   2.577
  850WAT      O16500   3.587   4.553  11.758
  850WAT     H116501   3.610   4.461  11.744
  850WAT     H216502   3.505   4.551  11.806
  851WAT      O16503   1.369   0.913   0.845
  851WAT     H116504   1.459   0.896   0.875
  851WAT     H216505   1.328   0.962   0.916
  852WAT      O16506   1.188   2.341   0.550
  852WAT     H116507   1.208   2.374   0.463
  852WAT     H216508   1.097   2.369   0.565
  853WAT      O16509   3.621   0.245  12.011
  853WAT     H116510   3.626   0.310  11.941
  853WAT     H216511   3.543   0.194  11.989
  854WAT      O16512   5.670   5.794   8.886
  854WAT     H116513   5.756   5.805   8.927
  854WAT     H216514   5.614   5.857   8.932
  855WAT      O16515   6.148   4.960   3.096
  855WAT     H116516   6.109   5.025   3.037
  855WAT     H216517   6.125   4.876   3.056
  856WAT      O16518   2.495   0.899   9.470
  856WAT     H116519   2.417   0.934   9.426
  856WAT     H216520   2.473   0.808   9.489
  857WAT      O16521   5.970   2.479   9.810
  857WAT     H116522   5.971   2.531   9.891
  857WAT     H216523   5.958   2.544   9.741
  858WAT      O16524   4.472   0.293  10.329
  858WAT     H116525   4.546   0.353  10.330
  858WAT     H216526   4.427   0.309  10.412
  859WAT      O16527   0.620   1.307  10.483
  859WAT     H116528   0.671   1.380  10.448
  859WAT     H216529   0.532   1.319  10.446
  860WAT      O16530   1.317   5.213   2.601
  860WAT     H116531   1.275   5.298   2.587
  860WAT     H216532   1.385   5.209   2.535
  861WAT      O16533   1.280   5.896   2.199
  861WAT     H116534   1.281   5.989   2.178
  861WAT     H216535   1.360   5.862   2.160
  862WAT      O16536   2.795   4.263   3.704
  862WAT     H116537   2.828   4.192   3.649
  862WAT     H216538   2.817   4.343   3.655
  863WAT      O16539   3.186   1.386   8.962
  863WAT     H116540   3.142   1.382   9.047
  863WAT     H216541   3.278   1.367   8.981
  864WAT      O16542   6.022   5.218   7.846
  864WAT     H116543   6.047   5.244   7.757
  864WAT     H216544   5.934   5.181   7.836
  865WAT      O16545   1.198   0.072  12.146
  865WAT     H116546   1.251   0.004  12.104
  865WAT     H216547   1.239   0.085  12.231
  866WAT      O16548   4.520   1.863  11.208
  866WAT     H116549   4.550   1.940  11.160
  866WAT     H216550   4.479   1.898  11.287
  867WAT      O16551   4.152   4.425   8.181
  867WAT     H116552   4.128   4.517   8.192
  867WAT     H216553   4.232   4.426   8.128
  868WAT      O16554   1.655   2.882  11.001
  868WAT     H116555   1.663   2.954  10.938
  868WAT     H216556   1.607   2.814  10.953
  869WAT      O16557   1.212   3.141   8.586
  869WAT     H116558   1.126   3.177   8.608
  869WAT     H216559   1.218   3.153   8.491
  870WAT      O16560   3.615   1.487   0.500
  870WAT     H116561   3.590   1.403   0.538
  870WAT     H216562   3.648   1.465   0.412
  871WAT      O16563   3.303   4.799   7.477
  871WAT     H116564   3.255   4.857   7.536
  871WAT     H216565   3.313   4.717   7.526
  872WAT      O16566   1.610   2.744   1.528
  872WAT     H116567   1.595   2.836   1.508
  872WAT     H216568   1.598   2.737   1.622
  873WAT      O16569   0.691   1.325   0.187
  873WAT     H116570   0.714   1.261   0.254
  873WAT     H216571   0.625   1.380   0.229
  874WAT      O16572   3.855   4.576   1.614
  874WAT     H116573   3.798   4.637   1.566
  874WAT     H216574   3.887   4.516   1.547
  875WAT      O16575   0.022   3.239   3.421
  875WAT     H116576   0.115   3.215   3.423
  875WAT     H216577   0.016   3.314   3.481
  876WAT      O16578   3.448   2.132   3.608
  876WAT     H116579   3.484   2.045   3.590
  876WAT     H216580   3.375   2.141   3.547
  877WAT      O16581   4.876   5.954  11.592
  877WAT     H116582   4.925   5.996  11.522
  877WAT     H216583   4.929   5.878  11.616
  878WAT      O16584   4.554   1.293   8.918
  878WAT     H116585   4.608   1.335   8.985
  878WAT     H216586   4.505   1.366   8.878
  879WAT      O16587   2.941   4.555   0.037
  879WAT     H116588   2.883   4.525  -0.033
  879WAT     H216589   2.923   4.649   0.045
  880WAT      O16590   2.308   4.034   3.545
  880WAT     H116591   2.248   3.963   3.563
  880WAT     H216592   2.360   4.043   3.625
  881WAT      O16593   1.184   5.971   4.487
  881WAT     H116594   1.097   5.941   4.462
  881WAT     H216595   1.189   5.956   4.582
  882WAT      O16596   1.039   0.475  12.477
  882WAT     H116597   1.069   0.392  12.439
  882WAT     H216598   0.972   0.506  12.416
  883WAT      O16599   0.408   3.017   9.777
  883WAT     H116600   0.407   2.944   9.714
  883WAT     H216601   0.472   3.078   9.741
  884WAT      O16602   2.002   5.126   8.560
  884WAT     H116603   2.042   5.163   8.639
  884WAT     H216604   1.909   5.121   8.581
  885WAT      O16605   1.858   2.589   1.540
  885WAT     H116606   1.783   2.647   1.529
  885WAT     H216607   1.843   2.518   1.478
  886WAT      O16608   3.883   5.350  12.264
  886WAT     H116609   3.951   5.296  12.225
  886WAT     H216610   3.921   5.438  12.268
  887WAT      O16611   2.752   5.765   8.634
  887WAT     H116612   2.744   5.720   8.550
  887WAT     H216613   2.842   5.749   8.662
  888WAT      O16614   1.121   1.945   0.219
  888WAT     H116615   1.167   1.905   0.293
  888WAT     H216616   1.127   1.880   0.149
  889WAT      O16617   1.388   3.770   1.846
  889WAT     H116618   1.375   3.721   1.764
  889WAT     H216619   1.461   3.726   1.889
  890WAT      O16620   2.540   3.870   7.849
  890WAT     H116621   2.635   3.862   7.851
  890WAT     H216622   2.522   3.961   7.872
  891WAT      O16623   1.373   1.097   0.641
  891WAT     H116624   1.454   1.147   0.653
  891WAT     H216625   1.367   1.041   0.718
  892WAT      O16626   4.391   2.547   9.753
  892WAT     H116627   4.379   2.475   9.815
  892WAT     H216628   4.471   2.591   9.782
  893WAT      O16629   1.700   0.514   9.905
  893WAT     H116630   1.761   0.578   9.942
  893WAT     H216631   1.680   0.548   9.818
  894WAT      O16632   4.163   3.807   8.724
  894WAT     H116633   4.098   3.811   8.654
  894WAT     H216634   4.175   3.713   8.741
  895WAT      O16635   2.728   0.135   4.376
  895WAT     H116636   2.751   0.110   4.466
  895WAT     H216637   2.657   0.198   4.386
  896WAT      O16638   2.905   2.037   8.646
  896WAT     H116639   2.878   2.089   8.570
  896WAT     H216640   2.882   1.947   8.623
  897WAT      O16641   0.111   3.596  11.259
  897WAT     H116642   0.122   3.508  11.297
  897WAT     H216643   0.017   3.608  11.253
  898WAT      O16644   2.830   3.574   3.750
  898WAT     H116645   2.783   3.657   3.738
  898WAT     H216646   2.912   3.598   3.792
  899WAT      O16647   4.566   1.677   4.685
  899WAT     H116648   4.518   1.730   4.622
  899WAT     H216649   4.507   1.604   4.705
  900WAT      O16650   0.915   1.709   3.109
  900WAT     H116651   0.951   1.745   3.028
  900WAT     H216652   0.861   1.780   3.145
  901WAT      O16653   5.821   1.959   8.165
  901WAT     H116654   5.747   1.996   8.213
  901WAT     H216655   5.787   1.941   8.078
  902WAT      O16656   5.635   0.955  10.397
  902WAT     H116657   5.728   0.976  10.406
  902WAT     H216658   5.616   0.968  10.305
  903WAT      O16659   1.418   2.648   0.027
  903WAT     H116660   1.428   2.701   0.106
  903WAT     H216661   1.440   2.708  -0.045
  904WAT      O16662   3.947   4.392  11.818
  904WAT     H116663   3.890   4.358  11.886
  904WAT     H216664   3.954   4.321  11.754
  905WAT      O16665   4.975   3.149   2.845
  905WAT     H116666   5.065   3.115   2.839
  905WAT     H216667   4.959   3.157   2.938
  906WAT      O16668   1.801   3.759   9.041
  906WAT     H116669   1.780   3.690   9.104
  906WAT     H216670   1.893   3.780   9.059
  907WAT      O16671   2.872   4.464   3.524
  907WAT     H116672   2.848   4.543   3.475
  907WAT     H216673   2.891   4.399   3.456
  908WAT      O16674   3.305   4.542   4.095
  908WAT     H116675   3.346   4.505   4.173
  908WAT     H216676   3.215   4.558   4.121
  909WAT      O16677   5.334   2.291  11.038
  909WAT     H116678   5.419   2.280  11.081
  909WAT     H216679   5.356   2.314  10.947
  910WAT      O16680   3.303   1.144   8.089
  910WAT     H116681   3.391   1.160   8.055
  910WAT     H216682   3.298   1.049   8.099
  911WAT      O16683   1.666   5.315   0.396
  911WAT     H116684   1.683   5.246   0.460
  911WAT     H216685   1.703   5.282   0.315
  912WAT      O16686   2.933   2.842  10.415
  912WAT     H116687   2.862   2.879  10.362
  912WAT     H216688   2.903   2.852  10.505
  913WAT      O16689   2.002   4.117   0.962
  913WAT     H116690   1.928   4.162   0.923
  913WAT     H216691   1.991   4.025   0.935
  914WAT      O16692   2.815   4.122   1.568
  914WAT     H116693   2.899   4.110   1.613
  914WAT     H216694   2.775   4.196   1.613
  915WAT      O16695   3.388   0.937   1.326
  915WAT     H116696   3.399   1.031   1.343
  915WAT     H216697   3.346   0.903   1.405
  916WAT      O16698   5.823   3.838   8.798
  916WAT     H116699   5.789   3.836   8.887
  916WAT     H216700   5.759   3.890   8.750
  917WAT      O16701   0.039   0.400   9.114
  917WAT     H116702   0.134   0.384   9.115
  917WAT     H216703   0.027   0.469   9.049
  918WAT      O16704   0.487   0.910   9.646
  918WAT     H116705   0.417   0.852   9.615
  918WAT     H216706   0.539   0.930   9.568
  919WAT      O16707   4.257   6.058   3.786
  919WAT     H116708   4.307   6.127   3.740
  919WAT     H216709   4.322   6.015   3.841
  920WAT      O16710   2.816   3.603   1.266
  920WAT     H116711   2.869   3.677   1.295
  920WAT     H216712   2.860   3.527   1.304
  921WAT      O16713   5.299   1.197  10.236
  921WAT     H116714   5.335   1.283  10.214
  921WAT     H216715   5.209   1.215  10.265
  922WAT      O16716   5.101   1.789   0.533
  922WAT     H116717   5.118   1.878   0.501
  922WAT     H216718   5.009   1.773   0.509
  923WAT      O16719   2.542   0.700   7.893
  923WAT     H116720   2.455   0.698   7.853
  923WAT     H216721   2.603   0.710   7.820
  924WAT      O16722   3.428   2.343   2.358
  924WAT     H116723   3.347   2.320   2.403
  924WAT     H216724   3.491   2.360   2.428
  925WAT      O16725   4.647   5.833  11.523
  925WAT     H116726   4.664   5.762  11.585
  925WAT     H216727   4.695   5.908  11.558
  926WAT      O16728   4.803   3.563   1.043
  926WAT     H116729   4.834   3.492   1.099
  926WAT     H216730   4.749   3.520   0.977
  927WAT      O16731   1.270   3.400   3.078
  927WAT     H116732   1.263   3.368   3.168
  927WAT     H216733   1.223   3.483   3.078
  928WAT      O16734   5.234   5.551   1.912
  928WAT     H116735   5.188   5.577   1.992
  928WAT     H216736   5.313   5.507   1.945
  929WAT      O16737   3.711   2.606   4.653
  929WAT     H116738   3.760   2.541   4.703
  929WAT     H216739   3.673   2.557   4.580
  930WAT      O16740   5.454   4.766   2.993
  930WAT     H116741   5.468   4.671   2.992
  930WAT     H216742   5.359   4.776   2.985
  931WAT      O16743   1.800   1.628   8.338
  931WAT     H116744   1.819   1.563   8.270
  931WAT     H216745   1.705   1.631   8.343
  932WAT      O16746   0.610   0.640   3.206
  932WAT     H116747   0.548   0.713   3.216
  932WAT     H216748   0.608   0.594   3.290
  933WAT      O16749   5.694   2.305   9.801
  933WAT     H116750   5.666   2.364   9.731
  933WAT     H216751   5.755   2.244   9.758
  934WAT      O16752  -0.018   3.162   9.718
  934WAT     H116753   0.075   3.180   9.732
  934WAT     H216754  -0.055   3.246   9.692
  935WAT      O16755   1.681   0.715  12.426
  935WAT     H116756   1.729   0.754  12.353
  935WAT     H216757   1.703   0.769  12.502
  936WAT      O16758   1.860   2.197   1.564
  936WAT     H116759   1.918   2.233   1.630
  936WAT     H216760   1.863   2.259   1.492
  937WAT      O16761   3.139   5.328   3.205
  937WAT     H116762   3.116   5.251   3.153
  937WAT     H216763   3.191   5.293   3.277
  938WAT      O16764   2.347   6.110   1.412
  938WAT     H116765   2.357   6.110   1.317
  938WAT     H216766   2.338   6.202   1.435
  939WAT      O16767   0.332   5.385  11.027
  939WAT     H116768   0.251   5.402  10.978
  939WAT     H216769   0.331   5.451  11.096
  940WAT      O16770   3.656   1.546  12.216
  940WAT     H116771   3.641   1.588  12.300
  940WAT     H216772   3.732   1.591  12.179
  941WAT      O16773   4.858   4.110   4.206
  941WAT     H116774   4.900   4.192   4.232
  941WAT     H216775   4.808   4.133   4.128
  942WAT      O16776   5.485   6.133  11.201
  942WAT     H116777   5.398   6.123  11.240
  942WAT     H216778   5.544   6.140  11.275
  943WAT      O16779   5.735   3.002  11.659
  943WAT     H116780   5.778   3.086  11.644
  943WAT     H216781   5.653   3.009  11.610
  944WAT      O16782   1.820   0.258   4.714
  944WAT     H116783   1.854   0.248   4.803
  944WAT     H216784   1.863   0.188   4.665
  945WAT      O16785   0.306   0.613  11.646
  945WAT     H116786   0.325   0.653  11.561
  945WAT     H216787   0.211   0.603  11.647
  946WAT      O16788   1.860   1.214   2.997
  946WAT     H116789   1.947   1.181   2.977
  946WAT     H216790   1.801   1.163   2.942
  947WAT      O16791   2.788   1.539   1.822
  947WAT     H116792   2.836   1.538   1.739
  947WAT     H216793   2.792   1.449   1.853
  948WAT      O16794   0.184   1.728   9.531
  948WAT     H116795   0.216   1.696   9.447
  948WAT     H216796   0.110   1.671   9.553
  949WAT      O16797   2.271   0.370   1.073
  949WAT     H116798   2.193   0.329   1.036
  949WAT     H216799   2.263   0.462   1.050
  950WAT      O16800   4.592   4.296  12.630
  950WAT     H116801   4.664   4.355  12.650
  950WAT     H216802   4.620   4.211  12.666
  951WAT      O16803   2.565   0.580   4.249
  951WAT     H116804   2.596   0.513   4.309
  951WAT     H216805   2.470   0.582   4.263
  952WAT      O16806   6.167   0.696  12.647
  952WAT     H116807   6.195   0.772  12.596
  952WAT     H216808   6.241   0.677  12.704
  953WAT      O16809   2.868   0.919   2.698
  953WAT     H116810   2.883   1.009   2.669
  953WAT     H216811   2.934   0.868   2.650
  954WAT      O16812   3.877   0.762   2.156
  954WAT     H116813   3.866   0.753   2.250
  954WAT     H216814   3.809   0.824   2.129
  955WAT      O16815   5.681   5.896  12.016
  955WAT     H116816   5.605   5.901  11.957
  955WAT     H216817   5.682   5.805  12.045
  956WAT      O16818   4.920   4.648   2.406
  956WAT     H116819   4.862   4.723   2.403
  956WAT     H216820   5.003   4.680   2.371
  957WAT      O16821   3.910   3.794  11.519
  957WAT     H116822   3.847   3.749  11.462
  957WAT     H216823   3.930   3.875  11.472
  958WAT      O16824   1.301   5.647   2.282
  958WAT     H116825   1.300   5.736   2.249
  958WAT     H216826   1.279   5.654   2.375
  959WAT      O16827   6.227   3.071   7.952
  959WAT     H116828   6.221   3.043   7.861
  959WAT     H216829   6.138   3.066   7.985
  960WAT      O16830   5.886   1.842   2.492
  960WAT     H116831   5.824   1.905   2.529
  960WAT     H216832   5.920   1.794   2.567
  961WAT      O16833   0.572   3.202   4.952
  961WAT     H116834   0.544   3.244   5.033
  961WAT     H216835   0.542   3.262   4.883
  962WAT      O16836   0.052   4.182   8.451
  962WAT     H116837   0.090   4.168   8.365
  962WAT     H216838   0.069   4.274   8.471
  963WAT      O16839   2.983   4.360   8.083
  963WAT     H116840   3.074   4.364   8.056
  963WAT     H216841   2.965   4.266   8.091
  964WAT      O16842   3.005   2.994   2.825
  964WAT     H116843   2.920   2.997   2.868
  964WAT     H216844   3.032   3.086   2.819
  965WAT      O16845   0.606   5.660   0.249
  965WAT     H116846   0.692   5.639   0.286
  965WAT     H216847   0.623   5.728   0.185
  966WAT      O16848   3.344   5.803   1.313
  966WAT     H116849   3.306   5.816   1.400
  966WAT     H216850   3.275   5.758   1.263
  967WAT      O16851   3.295   3.447   3.216
  967WAT     H116852   3.223   3.411   3.268
  967WAT     H216853   3.361   3.379   3.216
  968WAT      O16854   3.545   3.880   9.609
  968WAT     H116855   3.589   3.798   9.584
  968WAT     H216856   3.503   3.910   9.529
  969WAT      O16857   0.978   0.406   8.153
  969WAT     H116858   0.958   0.455   8.073
  969WAT     H216859   0.920   0.330   8.150
  970WAT      O16860   0.439   5.372   9.170
  970WAT     H116861   0.384   5.325   9.108
  970WAT     H216862   0.380   5.435   9.211
  971WAT      O16863   2.492   1.927   9.798
  971WAT     H116864   2.533   1.979   9.728
  971WAT     H216865   2.442   1.991   9.849
  972WAT      O16866   2.145   2.458   9.077
  972WAT     H116867   2.120   2.484   8.989
  972WAT     H216868   2.241   2.469   9.079
  973WAT      O16869   4.376   3.472   0.268
  973WAT     H116870   4.322   3.442   0.195
  973WAT     H216871   4.413   3.391   0.305
  974WAT      O16872   3.787   4.254   9.392
  974WAT     H116873   3.705   4.301   9.405
  974WAT     H216874   3.772   4.167   9.430
  975WAT      O16875   5.887   4.401  12.240
  975WAT     H116876   5.961   4.453  12.272
  975WAT     H216877   5.863   4.346  12.315
  976WAT      O16878   5.881   3.583  11.906
  976WAT     H116879   5.959   3.557  11.858
  976WAT     H216880   5.887   3.679  11.911
  977WAT      O16881   1.382   0.881   3.761
  977WAT     H116882   1.386   0.936   3.683
  977WAT     H216883   1.314   0.816   3.742
  978WAT      O16884   0.387   2.951   0.694
  978WAT     H116885   0.368   2.893   0.768
  978WAT     H216886   0.398   3.037   0.734
  979WAT      O16887   4.175   1.003   4.192
  979WAT     H116888   4.175   1.088   4.236
  979WAT     H216889   4.152   1.022   4.101
  980WAT      O16890   3.444   4.728   7.801
  980WAT     H116891   3.393   4.695   7.727
  980WAT     H216892   3.435   4.661   7.869
  981WAT      O16893   4.472   3.693  12.460
  981WAT     H116894   4.472   3.707  12.366
  981WAT     H216895   4.384   3.660  12.479
  982WAT      O16896   2.505   1.282   3.006
  982WAT     H116897   2.562   1.209   3.030
  982WAT     H216898   2.521   1.295   2.912
  983WAT      O16899   1.618   2.994  11.259
  983WAT     H116900   1.561   2.922  11.284
  983WAT     H216901   1.660   2.964  11.178
  984WAT      O16902   4.711   1.026   1.138
  984WAT     H116903   4.694   1.034   1.232
  984WAT     H216904   4.740   1.113   1.112
  985WAT      O16905   1.279   2.937   0.020
  985WAT     H116906   1.271   2.844   0.000
  985WAT     H216907   1.277   2.941   0.116
  986WAT      O16908   4.397   3.184   2.452
  986WAT     H116909   4.426   3.105   2.498
  986WAT     H216910   4.468   3.247   2.466
  987WAT      O16911   5.268   0.014   9.784
  987WAT     H116912   5.349   0.061   9.805
  987WAT     H216913   5.284  -0.075   9.815
  988WAT      O16914   4.125   2.210   7.353
  988WAT     H116915   4.090   2.280   7.409
  988WAT     H216916   4.048   2.156   7.333
  989WAT      O16917   2.670   5.158   0.234
  989WAT     H116918   2.731   5.154   0.308
  989WAT     H216919   2.725   5.178   0.159
  990WAT      O16920   4.438   1.414   2.139
  990WAT     H116921   4.429   1.506   2.115
  990WAT     H216922   4.529   1.406   2.169
  991WAT      O16923   5.395   0.385   9.474
  991WAT     H116924   5.439   0.467   9.452
  991WAT     H216925   5.421   0.325   9.405
  992WAT      O16926   3.206   3.662  12.504
  992WAT     H116927   3.170   3.662  12.416
  992WAT     H216928   3.211   3.755  12.528
  993WAT      O16929   5.922   5.641  11.423
  993WAT     H116930   5.970   5.595  11.355
  993WAT     H216931   5.888   5.571  11.480
  994WAT      O16932   0.282   4.459   9.071
  994WAT     H116933   0.249   4.414   9.149
  994WAT     H216934   0.370   4.486   9.095
  995WAT      O16935   4.156   4.640  10.197
  995WAT     H116936   4.140   4.557  10.152
  995WAT     H216937   4.109   4.705  10.145
  996WAT      O16938   0.339   3.247   0.789
  996WAT     H116939   0.381   3.314   0.843
  996WAT     H216940   0.274   3.208   0.847
  997WAT      O16941   5.526   1.933  11.074
  997WAT     H116942   5.568   1.936  11.160
  997WAT     H216943   5.432   1.937  11.093
  998WAT      O16944   1.659   5.189   7.782
  998WAT     H116945   1.624   5.116   7.835
  998WAT     H216946   1.581   5.238   7.756
  999WAT      O16947   5.003   5.519   9.099
  999WAT     H116948   4.965   5.594   9.144
  999WAT     H216949   4.940   5.498   9.030
 1000WAT      O16950   0.974   3.782   2.133
 1000WAT     H116951   0.906   3.843   2.104
 1000WAT     H216952   1.037   3.780   2.061
 1001WAT      O16953   0.569   4.959   2.418
 1001WAT     H116954   0.538   4.944   2.329
 1001WAT     H216955   0.588   4.872   2.452
 1002WAT      O16956   0.131   3.286  11.875
 1002WAT     H116957   0.164   3.234  11.948
 1002WAT     H216958   0.066   3.344  11.914
 1003WAT      O16959   0.077   5.134   3.954
 1003WAT     H116960   0.093   5.146   4.047
 1003WAT     H216961  -0.004   5.183   3.937
 1004WAT      O16962   3.515   3.637  10.758
 1004WAT     H116963   3.552   3.557  10.795
 1004WAT     H216964   3.439   3.656  10.813
 1005WAT      O16965   0.494   4.722   0.949
 1005WAT     H116966   0.524   4.645   0.997
 1005WAT     H216967   0.505   4.700   0.857
 1006WAT      O16968   2.097   3.728  11.232
 1006WAT     H116969   2.139   3.667  11.171
 1006WAT     H216970   2.003   3.719  11.216
 1007WAT      O16971   4.784   5.731   9.629
 1007WAT     H116972   4.851   5.686   9.577
 1007WAT     H216973   4.705   5.729   9.576
 1008WAT      O16974   0.027   0.720   1.492
 1008WAT     H116975   0.021   0.696   1.399
 1008WAT     H216976   0.042   0.637   1.537
 1009WAT      O16977   3.401   2.557   0.064
 1009WAT     H116978   3.471   2.621   0.058
 1009WAT     H216979   3.342   2.592   0.131
 1010WAT      O16980   4.489   3.252   0.363
 1010WAT     H116981   4.448   3.234   0.448
 1010WAT     H216982   4.583   3.249   0.381
 1011WAT      O16983   4.425   2.811   4.536
 1011WAT     H116984   4.403   2.902   4.519
 1011WAT     H216985   4.448   2.776   4.449
 1012WAT      O16986   1.937   4.221  10.070
 1012WAT     H116987   1.941   4.190  10.160
 1012WAT     H216988   1.844   4.228  10.051
 1013WAT      O16989   5.020   0.021   9.666
 1013WAT     H116990   5.003   0.077   9.742
 1013WAT     H216991   5.111  -0.008   9.678
 1014WAT      O16992   5.581   1.663  10.722
 1014WAT     H116993   5.595   1.578  10.679
 1014WAT     H216994   5.654   1.717  10.692
 1015WAT      O16995   5.984   6.122   1.985
 1015WAT     H116996   6.065   6.072   1.976
 1015WAT     H216997   5.961   6.149   1.896
 1016WAT      O16998   4.308   1.473  12.585
 1016WAT     H116999   4.385   1.435  12.541
 1016WAT     H217000   4.256   1.397  12.611
 1017WAT      O17001   1.691   5.883  12.089
 1017WAT     H117002   1.674   5.827  12.013
 1017WAT     H217003   1.657   5.969  12.064
 1018WAT      O17004   3.405   4.828   9.608
 1018WAT     H117005   3.411   4.917   9.642
 1018WAT     H217006   3.485   4.817   9.555
 1019WAT      O17007   5.584   2.763   8.069
 1019WAT     H117008   5.590   2.770   8.164
 1019WAT     H217009   5.674   2.777   8.038
 1020WAT      O17010   1.007   2.431   1.174
 1020WAT     H117011   0.972   2.353   1.131
 1020WAT     H217012   1.099   2.434   1.147
 1021WAT      O17013   1.061   0.215  12.426
 1021WAT     H117014   1.058   0.127  12.466
 1021WAT     H217015   0.979   0.222  12.377
 1022WAT      O17016   0.686   4.544   1.656
 1022WAT     H117017   0.621   4.487   1.615
 1022WAT     H217018   0.670   4.536   1.750
 1023WAT      O17019   4.260   5.981   9.908
 1023WAT     H117020   4.224   5.956   9.993
 1023WAT     H217021   4.355   5.967   9.917
 1024WAT      O17022   5.432   0.210   2.920
 1024WAT     H117023   5.402   0.245   3.003
 1024WAT     H217024   5.450   0.288   2.867
 1025WAT      O17025   2.342   0.293  10.863
 1025WAT     H117026   2.272   0.354  10.839
 1025WAT     H217027   2.422   0.336  10.832
 1026WAT      O17028   6.059   2.040   8.802
 1026WAT     H117029   6.125   2.020   8.736
 1026WAT     H217030   6.042   2.133   8.791
 1027WAT      O17031   5.331   3.687   8.858
 1027WAT     H117032   5.334   3.757   8.792
 1027WAT     H217033   5.378   3.722   8.933
 1028WAT      O17034   2.976   1.194  11.292
 1028WAT     H117035   2.950   1.196  11.385
 1028WAT     H217036   3.032   1.271  11.282
 1029WAT      O17037   5.888   3.769   2.548
 1029WAT     H117038   5.890   3.674   2.559
 1029WAT     H217039   5.962   3.801   2.600
 1030WAT      O17040   1.849   0.668  11.211
 1030WAT     H117041   1.920   0.727  11.236
 1030WAT     H217042   1.797   0.658  11.290
 1031WAT      O17043   4.986   1.728   8.489
 1031WAT     H117044   5.041   1.777   8.428
 1031WAT     H217045   4.993   1.775   8.572
 1032WAT      O17046   1.773   0.849   8.917
 1032WAT     H117047   1.838   0.909   8.881
 1032WAT     H217048   1.807   0.762   8.897
 1033WAT      O17049   3.143   1.544   1.522
 1033WAT     H117050   3.118   1.454   1.542
 1033WAT     H217051   3.212   1.565   1.585
 1034WAT      O17052   0.960   2.168   1.384
 1034WAT     H117053   1.033   2.207   1.337
 1034WAT     H217054   1.001   2.112   1.450
 1035WAT      O17055   4.587   5.719   8.771
 1035WAT     H117056   4.531   5.659   8.722
 1035WAT     H217057   4.671   5.716   8.725
 1036WAT      O17058   1.379   0.505   8.051
 1036WAT     H117059   1.412   0.532   7.965
 1036WAT     H217060   1.296   0.552   8.061
 1037WAT      O17061   5.797   4.456   0.648
 1037WAT     H117062   5.719   4.400   0.646
 1037WAT     H217063   5.833   4.444   0.736
 1038WAT      O17064   4.118   2.029   8.713
 1038WAT     H117065   4.124   2.117   8.750
 1038WAT     H217066   4.024   2.013   8.704
 1039WAT      O17067   1.167   3.204   2.077
 1039WAT     H117068   1.083   3.158   2.069
 1039WAT     H217069   1.151   3.273   2.141
 1040WAT      O17070   5.922   4.156   2.100
 1040WAT     H117071   5.951   4.071   2.066
 1040WAT     H217072   5.860   4.134   2.169
 1041WAT      O17073   3.988   1.586  11.170
 1041WAT     H117074   3.944   1.651  11.225
 1041WAT     H217075   3.927   1.512  11.166
 1042WAT      O17076   3.053   2.593   4.376
 1042WAT     H117077   3.026   2.681   4.352
 1042WAT     H217078   3.045   2.591   4.472
 1043WAT      O17079   4.254   1.971   1.082
 1043WAT     H117080   4.217   2.012   1.161
 1043WAT     H217081   4.211   1.886   1.077
 1044WAT      O17082   1.350   4.050   1.114
 1044WAT     H117083   1.298   4.090   1.184
 1044WAT     H217084   1.284   4.016   1.053
 1045WAT      O17085   2.312   4.645  11.152
 1045WAT     H117086   2.388   4.635  11.095
 1045WAT     H217087   2.237   4.639  11.094
 1046WAT      O17088   5.919   3.208   7.851
 1046WAT     H117089   5.886   3.277   7.909
 1046WAT     H217090   5.906   3.127   7.900
 1047WAT      O17091   4.009   5.170  10.467
 1047WAT     H117092   4.007   5.086  10.420
 1047WAT     H217093   3.917   5.194  10.477
 1048WAT      O17094   6.107   4.350   0.239
 1048WAT     H117095   6.077   4.311   0.322
 1048WAT     H217096   6.168   4.285   0.203
 1049WAT      O17097   1.023   3.498   8.024
 1049WAT     H117098   0.983   3.585   8.028
 1049WAT     H217099   1.009   3.461   8.111
 1050WAT      O17100   0.914   0.847   9.757
 1050WAT     H117101   0.916   0.938   9.788
 1050WAT     H217102   0.931   0.853   9.663
 1051WAT      O17103   2.436   5.163   0.469
 1051WAT     H117104   2.490   5.239   0.488
 1051WAT     H217105   2.481   5.120   0.396
 1052WAT      O17106   2.570   2.314  10.542
 1052WAT     H117107   2.586   2.224  10.569
 1052WAT     H217108   2.478   2.315  10.514
 1053WAT      O17109   0.093   5.543   8.463
 1053WAT     H117110   0.014   5.492   8.445
 1053WAT     H217111   0.063   5.614   8.519
 1054WAT      O17112   6.072   2.082   4.242
 1054WAT     H117113   6.004   2.133   4.197
 1054WAT     H217114   6.036   2.068   4.330
 1055WAT      O17115   6.123   0.432   7.917
 1055WAT     H117116   6.044   0.381   7.934
 1055WAT     H217117   6.092   0.522   7.905
 1056WAT      O17118   4.091   2.748   2.383
 1056WAT     H117119   4.041   2.816   2.339
 1056WAT     H217120   4.034   2.719   2.455
 1057WAT      O17121   5.292   5.723  10.835
 1057WAT     H117122   5.375   5.730  10.788
 1057WAT     H217123   5.228   5.766  10.778
 1058WAT      O17124   1.954   0.514   3.067
 1058WAT     H117125   2.048   0.524   3.055
 1058WAT     H217126   1.946   0.444   3.132
 1059WAT      O17127   4.231   4.617  12.172
 1059WAT     H117128   4.175   4.663  12.110
 1059WAT     H217129   4.314   4.665  12.170
 1060WAT      O17130   4.188   2.493   4.706
 1060WAT     H117131   4.102   2.456   4.730
 1060WAT     H217132   4.168   2.582   4.677
 1061WAT      O17133   4.658   4.028  12.019
 1061WAT     H117134   4.649   4.057  12.110
 1061WAT     H217135   4.745   3.988  12.015
 1062WAT      O17136   0.147   4.321  11.548
 1062WAT     H117137   0.152   4.409  11.586
 1062WAT     H217138   0.146   4.262  11.623
 1063WAT      O17139   2.064   4.633   1.533
 1063WAT     H117140   2.155   4.659   1.549
 1063WAT     H217141   2.019   4.650   1.615
 1064WAT      O17142   2.619   1.244   0.860
 1064WAT     H117143   2.618   1.232   0.955
 1064WAT     H217144   2.527   1.252   0.836
 1065WAT      O17145   4.506   4.123   1.674
 1065WAT     H117146   4.509   4.210   1.635
 1065WAT     H217147   4.591   4.112   1.716
 1066WAT      O17148   0.729   1.626  11.184
 1066WAT     H117149   0.822   1.610  11.169
 1066WAT     H217150   0.687   1.544  11.160
 1067WAT      O17151   0.499   1.496   2.478
 1067WAT     H117152   0.541   1.413   2.455
 1067WAT     H217153   0.530   1.558   2.412
 1068WAT      O17154   5.125   4.661   3.697
 1068WAT     H117155   5.191   4.712   3.649
 1068WAT     H217156   5.115   4.581   3.645
 1069WAT      O17157   2.251   3.395   3.708
 1069WAT     H117158   2.315   3.325   3.699
 1069WAT     H217159   2.298   3.466   3.751
 1070WAT      O17160   4.968   4.526  10.075
 1070WAT     H117161   4.916   4.606  10.074
 1070WAT     H217162   4.951   4.488  10.162
 1071WAT      O17163   3.640   4.091   2.516
 1071WAT     H117164   3.631   4.115   2.608
 1071WAT     H217165   3.602   4.164   2.468
 1072WAT      O17166   0.690   1.063   1.793
 1072WAT     H117167   0.619   0.999   1.797
 1072WAT     H217168   0.659   1.129   1.731
 1073WAT      O17169   1.888   0.657  11.588
 1073WAT     H117170   1.966   0.635  11.537
 1073WAT     H217171   1.904   0.616  11.673
 1074WAT      O17172   3.228   3.189   0.022
 1074WAT     H117173   3.240   3.164   0.114
 1074WAT     H217174   3.201   3.281   0.026
 1075WAT      O17175   5.847   5.720  10.774
 1075WAT     H117176   5.774   5.714  10.712
 1075WAT     H217177   5.806   5.739  10.858
 1076WAT      O17178   1.129   3.082   9.432
 1076WAT     H117179   1.137   3.004   9.486
 1076WAT     H217180   1.160   3.055   9.345
 1077WAT      O17181   2.311   0.720   9.738
 1077WAT     H117182   2.242   0.785   9.727
 1077WAT     H217183   2.341   0.732   9.828
 1078WAT      O17184   1.432   3.459   2.230
 1078WAT     H117185   1.412   3.417   2.313
 1078WAT     H217186   1.385   3.543   2.233
 1079WAT      O17187   2.684   2.520   3.293
 1079WAT     H117188   2.711   2.433   3.265
 1079WAT     H217189   2.681   2.571   3.213
 1080WAT      O17190   2.088   4.490   4.280
 1080WAT     H117191   2.161   4.477   4.341
 1080WAT     H217192   2.020   4.430   4.311
 1081WAT      O17193   1.819   4.147   2.242
 1081WAT     H117194   1.883   4.096   2.193
 1081WAT     H217195   1.761   4.082   2.280
 1082WAT      O17196   0.676   4.881  11.740
 1082WAT     H117197   0.715   4.813  11.795
 1082WAT     H217198   0.669   4.957  11.798
 1083WAT      O17199   5.525   3.786   0.860
 1083WAT     H117200   5.452   3.744   0.815
 1083WAT     H217201   5.485   3.857   0.911
 1084WAT      O17202   2.324   3.880  12.138
 1084WAT     H117203   2.398   3.940  12.125
 1084WAT     H217204   2.259   3.932  12.184
 1085WAT      O17205   1.957   5.431  10.834
 1085WAT     H117206   1.948   5.467  10.922
 1085WAT     H217207   2.052   5.418  10.824
 1086WAT      O17208   5.590   4.747  12.373
 1086WAT     H117209   5.629   4.689  12.308
 1086WAT     H217210   5.637   4.830  12.363
 1087WAT      O17211   1.037   0.650   8.915
 1087WAT     H117212   1.086   0.641   8.996
 1087WAT     H217213   1.088   0.712   8.862
 1088WAT      O17214   2.138   4.795   3.816
 1088WAT     H117215   2.230   4.789   3.789
 1088WAT     H217216   2.097   4.717   3.779
 1089WAT      O17217   5.474   1.917   8.552
 1089WAT     H117218   5.488   1.825   8.572
 1089WAT     H217219   5.562   1.956   8.556
 1090WAT      O17220   5.076   1.983  11.319
 1090WAT     H117221   5.097   1.922  11.390
 1090WAT     H217222   5.145   1.968  11.254
 1091WAT      O17223   5.609   5.177   9.929
 1091WAT     H117224   5.642   5.095   9.893
 1091WAT     H217225   5.656   5.187  10.012
 1092WAT      O17226   3.200   5.227   4.812
 1092WAT     H117227   3.163   5.142   4.789
 1092WAT     H217228   3.221   5.219   4.906
 1093WAT      O17229   6.242   4.184   1.492
 1093WAT     H117230   6.188   4.196   1.570
 1093WAT     H217231   6.252   4.272   1.455
 1094WAT      O17232   2.230   4.307  12.131
 1094WAT     H117233   2.320   4.328  12.158
 1094WAT     H217234   2.237   4.283  12.039
 1095WAT      O17235   1.779   4.005   9.517
 1095WAT     H117236   1.804   3.914   9.536
 1095WAT     H217237   1.689   3.999   9.486
 1096WAT      O17238   3.632   0.126   9.926
 1096WAT     H117239   3.540   0.106   9.943
 1096WAT     H217240   3.631   0.184   9.850
 1097WAT      O17241   4.410   0.481   0.547
 1097WAT     H117242   4.476   0.515   0.607
 1097WAT     H217243   4.454   0.478   0.462
 1098WAT      O17244   0.420   4.762  11.321
 1098WAT     H117245   0.350   4.774  11.257
 1098WAT     H217246   0.501   4.767  11.270
 1099WAT      O17247   4.737   2.208   3.805
 1099WAT     H117248   4.649   2.173   3.788
 1099WAT     H217249   4.770   2.234   3.719
 1100WAT      O17250   2.316   5.868   2.346
 1100WAT     H117251   2.239   5.889   2.398
 1100WAT     H217252   2.340   5.779   2.372
 1101WAT      O17253   3.004   4.119   1.366
 1101WAT     H117254   2.915   4.145   1.390
 1101WAT     H217255   3.061   4.182   1.411
 1102WAT      O17256   0.978   2.791   2.571
 1102WAT     H117257   0.950   2.868   2.621
 1102WAT     H217258   0.967   2.817   2.480
 1103WAT      O17259   2.101   5.264   8.813
 1103WAT     H117260   2.051   5.326   8.866
 1103WAT     H217261   2.191   5.297   8.817
 1104WAT      O17262   3.524   4.036   2.762
 1104WAT     H117263   3.499   3.944   2.775
 1104WAT     H217264   3.589   4.053   2.830
 1105WAT      O17265   2.999   2.738   1.691
 1105WAT     H117266   3.000   2.665   1.629
 1105WAT     H217267   2.920   2.723   1.743
 1106WAT      O17268   4.044   3.736  10.964
 1106WAT     H117269   3.950   3.730  10.977
 1106WAT     H217270   4.056   3.800  10.894
 1107WAT      O17271   3.938   6.073   0.907
 1107WAT     H117272   3.855   6.107   0.943
 1107WAT     H217273   3.916   5.986   0.876
 1108WAT      O17274   1.699   0.048   0.539
 1108WAT     H117275   1.639  -0.021   0.509
 1108WAT     H217276   1.780   0.032   0.489
 1109WAT      O17277   3.561   4.226   1.015
 1109WAT     H117278   3.632   4.188   1.066
 1109WAT     H217279   3.597   4.308   0.981
 1110WAT      O17280   5.963   0.624   9.645
 1110WAT     H117281   5.980   0.575   9.564
 1110WAT     H217282   5.868   0.634   9.648
 1111WAT      O17283   1.310   0.481   4.325
 1111WAT     H117284   1.352   0.454   4.406
 1111WAT     H217285   1.251   0.408   4.303
 1112WAT      O17286   0.597   5.881  10.818
 1112WAT     H117287   0.532   5.835  10.872
 1112WAT     H217288   0.670   5.819  10.810
 1113WAT      O17289   2.461   5.434  10.907
 1113WAT     H117290   2.373   5.400  10.889
 1113WAT     H217291   2.476   5.413  11.000
 1114WAT      O17292   4.243   0.709   0.232
 1114WAT     H117293   4.200   0.626   0.210
 1114WAT     H217294   4.215   0.727   0.322
 1115WAT      O17295   4.823   4.382   9.693
 1115WAT     H117296   4.865   4.384   9.607
 1115WAT     H217297   4.731   4.366   9.675
 1116WAT      O17298   1.789   3.189   9.392
 1116WAT     H117299   1.855   3.154   9.333
 1116WAT     H217300   1.838   3.220   9.468
 1117WAT      O17301   5.041   4.030   3.500
 1117WAT     H117302   5.133   4.008   3.489
 1117WAT     H217303   5.014   4.065   3.415
 1118WAT      O17304   0.337   1.759   2.749
 1118WAT     H117305   0.329   1.683   2.808
 1118WAT     H217306   0.292   1.830   2.794
 1119WAT      O17307   0.529   0.731   0.170
 1119WAT     H117308   0.483   0.739   0.087
 1119WAT     H217309   0.605   0.675   0.151
 1120WAT      O17310   5.041   4.871   2.717
 1120WAT     H117311   5.057   4.779   2.735
 1120WAT     H217312   5.040   4.877   2.622
 1121WAT      O17313   1.507   0.929   0.154
 1121WAT     H117314   1.465   0.942   0.069
 1121WAT     H217315   1.527   1.018   0.185
 1122WAT      O17316   0.374   5.875   2.592
 1122WAT     H117317   0.374   5.781   2.577
 1122WAT     H217318   0.285   5.903   2.567
 1123WAT      O17319   4.982   3.756   2.844
 1123WAT     H117320   4.974   3.755   2.940
 1123WAT     H217321   5.058   3.700   2.826
 1124WAT      O17322   2.068   0.111   0.086
 1124WAT     H117323   2.067   0.201   0.118
 1124WAT     H217324   1.985   0.102   0.039
 1125WAT      O17325   2.904   0.660   1.040
 1125WAT     H117326   2.815   0.649   1.007
 1125WAT     H217327   2.914   0.592   1.107
 1126WAT      O17328   1.357   0.215   8.486
 1126WAT     H117329   1.283   0.189   8.541
 1126WAT     H217330   1.318   0.244   8.404
 1127WAT      O17331   2.471   0.623   9.542
 1127WAT     H117332   2.507   0.543   9.579
 1127WAT     H217333   2.391   0.640   9.593
 1128WAT      O17334   3.247   2.995  12.149
 1128WAT     H117335   3.306   3.056  12.194
 1128WAT     H217336   3.244   2.918  12.206
 1129WAT      O17337   1.158   2.398   1.474
 1129WAT     H117338   1.136   2.450   1.552
 1129WAT     H217339   1.224   2.450   1.428
 1130WAT      O17340   1.799   3.506   4.183
 1130WAT     H117341   1.827   3.467   4.100
 1130WAT     H217342   1.881   3.534   4.225
 1131WAT      O17343   2.675   4.534  10.151
 1131WAT     H117344   2.750   4.483  10.119
 1131WAT     H217345   2.646   4.583  10.074
 1132WAT      O17346   0.423   1.798   4.077
 1132WAT     H117347   0.365   1.806   4.002
 1132WAT     H217348   0.483   1.873   4.069
 1133WAT      O17349   4.254   1.449   0.657
 1133WAT     H117350   4.349   1.449   0.671
 1133WAT     H217351   4.222   1.519   0.714
 1134WAT      O17352   4.991   3.939  10.694
 1134WAT     H117353   5.069   3.884  10.697
 1134WAT     H217354   4.933   3.902  10.760
 1135WAT      O17355   3.972   2.394  11.571
 1135WAT     H117356   3.892   2.397  11.519
 1135WAT     H217357   3.947   2.426  11.657
 1136WAT      O17358   2.182   5.519   9.552
 1136WAT     H117359   2.132   5.444   9.584
 1136WAT     H217360   2.236   5.546   9.627
 1137WAT      O17361   5.384   4.101   9.764
 1137WAT     H117362   5.435   4.180   9.746
 1137WAT     H217363   5.303   4.114   9.716
 1138WAT      O17364   5.071   2.374  10.149
 1138WAT     H117365   5.022   2.388  10.231
 1138WAT     H217366   5.006   2.341  10.088
 1139WAT      O17367   1.637   3.712   9.366
 1139WAT     H117368   1.617   3.689   9.456
 1139WAT     H217369   1.573   3.664   9.314
 1140WAT      O17370   0.944   2.514  10.644
 1140WAT     H117371   1.021   2.493  10.591
 1140WAT     H217372   0.870   2.483  10.592
 1141WAT      O17373   2.167   3.348   0.964
 1141WAT     H117374   2.189   3.256   0.947
 1141WAT     H217375   2.072   3.348   0.972
 1142WAT      O17376   3.172   5.077   8.995
 1142WAT     H117377   3.226   5.139   9.043
 1142WAT     H217378   3.133   5.021   9.062
 1143WAT      O17379   2.908   4.975   3.034
 1143WAT     H117380   2.932   4.921   2.959
 1143WAT     H217381   2.876   5.057   2.995
 1144WAT      O17382   6.097   0.307   0.168
 1144WAT     H117383   6.181   0.341   0.136
 1144WAT     H217384   6.074   0.239   0.106
 1145WAT      O17385   0.281   5.404   2.472
 1145WAT     H117386   0.325   5.476   2.518
 1145WAT     H217387   0.331   5.326   2.496
 1146WAT      O17388   3.162   5.332   2.153
 1146WAT     H117389   3.091   5.280   2.117
 1146WAT     H217390   3.239   5.276   2.147
 1147WAT      O17391   4.813   5.719   1.681
 1147WAT     H117392   4.794   5.802   1.724
 1147WAT     H217393   4.737   5.704   1.624
 1148WAT      O17394   3.358   0.660  12.686
 1148WAT     H117395   3.394   0.586  12.638
 1148WAT     H217396   3.435   0.712  12.711
 1149WAT      O17397   5.334   2.135   8.473
 1149WAT     H117398   5.375   2.179   8.547
 1149WAT     H217399   5.380   2.052   8.465
 1150WAT      O17400   0.820   3.405   9.189
 1150WAT     H117401   0.910   3.375   9.179
 1150WAT     H217402   0.794   3.375   9.275
 1151WAT      O17403   3.126   6.129   1.356
 1151WAT     H117404   3.177   6.176   1.290
 1151WAT     H217405   3.038   6.165   1.347
 1152WAT      O17406   0.267   5.119   1.952
 1152WAT     H117407   0.295   5.032   1.925
 1152WAT     H217408   0.263   5.114   2.048
 1153WAT      O17409   2.179   3.018  11.842
 1153WAT     H117410   2.163   3.105  11.877
 1153WAT     H217411   2.092   2.978  11.835
 1154WAT      O17412   5.894   5.223   3.059
 1154WAT     H117413   5.874   5.179   2.977
 1154WAT     H217414   5.981   5.260   3.047
 1155WAT      O17415   6.182   5.426   2.661
 1155WAT     H117416   6.192   5.404   2.569
 1155WAT     H217417   6.116   5.495   2.662
 1156WAT      O17418   4.010   2.631   3.061
 1156WAT     H117419   3.937   2.673   3.106
 1156WAT     H217420   4.062   2.703   3.026
 1157WAT      O17421   4.624   4.937   4.561
 1157WAT     H117422   4.659   5.013   4.607
 1157WAT     H217423   4.672   4.935   4.478
 1158WAT      O17424   2.998   1.546   0.874
 1158WAT     H117425   3.013   1.624   0.821
 1158WAT     H217426   3.010   1.575   0.964
 1159WAT      O17427   3.851   0.827  10.832
 1159WAT     H117428   3.820   0.870  10.753
 1159WAT     H217429   3.776   0.831  10.892
 1160WAT      O17430   0.746   0.563   9.004
 1160WAT     H117431   0.713   0.610   9.081
 1160WAT     H217432   0.841   0.575   9.007
 1161WAT      O17433   4.789   5.661   3.822
 1161WAT     H117434   4.740   5.739   3.847
 1161WAT     H217435   4.822   5.626   3.905
 1162WAT      O17436   4.848   5.213   3.521
 1162WAT     H117437   4.828   5.239   3.431
 1162WAT     H217438   4.943   5.224   3.529
 1163WAT      O17439   2.745   3.823   2.489
 1163WAT     H117440   2.814   3.887   2.506
 1163WAT     H217441   2.740   3.817   2.393
 1164WAT      O17442   0.919   1.198   1.964
 1164WAT     H117443   0.894   1.288   1.945
 1164WAT     H217444   0.842   1.146   1.938
 1165WAT      O17445   4.753   0.055   3.746
 1165WAT     H117446   4.787   0.096   3.667
 1165WAT     H217447   4.658   0.059   3.737
 1166WAT      O17448   0.795   4.868   9.615
 1166WAT     H117449   0.773   4.883   9.707
 1166WAT     H217450   0.804   4.773   9.607
 1167WAT      O17451   3.621   1.076   9.874
 1167WAT     H117452   3.557   1.145   9.884
 1167WAT     H217453   3.646   1.079   9.781
 1168WAT      O17454   4.598   3.367   7.674
 1168WAT     H117455   4.552   3.330   7.749
 1168WAT     H217456   4.529   3.409   7.622
 1169WAT      O17457   1.166   1.699   9.817
 1169WAT     H117458   1.231   1.676   9.751
 1169WAT     H217459   1.214   1.701   9.900
 1170WAT      O17460   4.632   2.486  10.294
 1170WAT     H117461   4.637   2.397  10.259
 1170WAT     H217462   4.594   2.476  10.381
 1171WAT      O17463   0.134   3.140   8.199
 1171WAT     H117464   0.102   3.075   8.262
 1171WAT     H217465   0.076   3.132   8.124
 1172WAT      O17466   2.303   3.043   2.774
 1172WAT     H117467   2.387   3.035   2.728
 1172WAT     H217468   2.294   3.136   2.793
 1173WAT      O17469   4.318   0.102   1.562
 1173WAT     H117470   4.252   0.151   1.514
 1173WAT     H217471   4.378   0.070   1.495
 1174WAT      O17472   1.678   4.222   0.514
 1174WAT     H117473   1.634   4.278   0.450
 1174WAT     H217474   1.770   4.249   0.511
 1175WAT      O17475   5.640   4.279   8.035
 1175WAT     H117476   5.713   4.229   8.071
 1175WAT     H217477   5.612   4.230   7.957
 1176WAT      O17478   5.142   1.718   4.478
 1176WAT     H117479   5.137   1.766   4.560
 1176WAT     H217480   5.088   1.640   4.492
 1177WAT      O17481   3.207   1.207   3.713
 1177WAT     H117482   3.268   1.140   3.743
 1177WAT     H217483   3.123   1.162   3.705
 1178WAT      O17484   0.440   1.895   2.225
 1178WAT     H117485   0.478   1.972   2.267
 1178WAT     H217486   0.346   1.903   2.242
 1179WAT      O17487   0.111   3.779  10.084
 1179WAT     H117488   0.192   3.831  10.077
 1179WAT     H217489   0.116   3.718  10.010
 1180WAT      O17490   1.623   3.469   4.523
 1180WAT     H117491   1.549   3.416   4.551
 1180WAT     H217492   1.583   3.549   4.486
 1181WAT      O17493   0.245   0.667   3.453
 1181WAT     H117494   0.223   0.754   3.421
 1181WAT     H217495   0.232   0.672   3.548
 1182WAT      O17496   4.176   2.737   4.589
 1182WAT     H117497   4.148   2.808   4.647
 1182WAT     H217498   4.262   2.764   4.558
 1183WAT      O17499   5.249   4.054  12.177
 1183WAT     H117500   5.320   4.106  12.215
 1183WAT     H217501   5.252   4.074  12.083
 1184WAT      O17502   4.848   5.990  10.112
 1184WAT     H117503   4.836   6.055  10.043
 1184WAT     H217504   4.767   5.992  10.162
 1185WAT      O17505   1.573   1.369   9.554
 1185WAT     H117506   1.605   1.458   9.560
 1185WAT     H217507   1.637   1.316   9.602
 1186WAT      O17508   5.871   3.181   8.993
 1186WAT     H117509   5.842   3.162   9.083
 1186WAT     H217510   5.909   3.269   8.999
 1187WAT      O17511   4.287   1.313  10.793
 1187WAT     H117512   4.340   1.357  10.859
 1187WAT     H217513   4.331   1.229  10.779
 1188WAT      O17514   1.791   0.284   8.867
 1188WAT     H117515   1.707   0.302   8.825
 1188WAT     H217516   1.795   0.189   8.873
 1189WAT      O17517   0.997   4.622  12.474
 1189WAT     H117518   1.041   4.539  12.452
 1189WAT     H217519   1.067   4.686  12.478
 1190WAT      O17520   1.186   4.124   1.689
 1190WAT     H117521   1.146   4.190   1.633
 1190WAT     H217522   1.116   4.093   1.746
 1191WAT      O17523   3.402   4.337   4.630
 1191WAT     H117524   3.462   4.354   4.557
 1191WAT     H217525   3.445   4.378   4.705
 1192WAT      O17526   4.322   4.347   9.089
 1192WAT     H117527   4.261   4.420   9.081
 1192WAT     H217528   4.281   4.288   9.151
 1193WAT      O17529   6.059   0.184  11.320
 1193WAT     H117530   6.036   0.139  11.402
 1193WAT     H217531   6.100   0.116  11.266
 1194WAT      O17532   2.572   5.011  11.582
 1194WAT     H117533   2.561   4.923  11.544
 1194WAT     H217534   2.653   5.043  11.543
 1195WAT      O17535   2.587   2.555   9.532
 1195WAT     H117536   2.518   2.620   9.525
 1195WAT     H217537   2.659   2.590   9.478
 1196WAT      O17538   2.036   6.151   9.007
 1196WAT     H117539   2.131   6.155   9.022
 1196WAT     H217540   2.011   6.063   9.034
 1197WAT      O17541   0.784   4.238   2.617
 1197WAT     H117542   0.699   4.240   2.662
 1197WAT     H217543   0.761   4.232   2.524
 1198WAT      O17544   1.601   6.204   8.914
 1198WAT     H117545   1.598   6.168   9.003
 1198WAT     H217546   1.694   6.203   8.891
 1199WAT      O17547   2.543   0.784   0.460
 1199WAT     H117548   2.583   0.862   0.422
 1199WAT     H217549   2.449   0.799   0.453
 1200WAT      O17550   1.382   5.834   9.619
 1200WAT     H117551   1.310   5.801   9.565
 1200WAT     H217552   1.339   5.886   9.686
 1201WAT      O17553   3.586   4.003   1.920
 1201WAT     H117554   3.600   4.094   1.893
 1201WAT     H217555   3.586   4.006   2.016
 1202WAT      O17556   1.370   4.956   1.451
 1202WAT     H117557   1.277   4.978   1.456
 1202WAT     H217558   1.372   4.860   1.453
 1203WAT      O17559   4.739   2.295  10.901
 1203WAT     H117560   4.787   2.220  10.937
 1203WAT     H217561   4.647   2.276  10.920
 1204WAT      O17562   2.420   0.087   8.880
 1204WAT     H117563   2.351   0.081   8.814
 1204WAT     H217564   2.452   0.177   8.874
 1205WAT      O17565   2.257   0.240   0.683
 1205WAT     H117566   2.259   0.169   0.746
 1205WAT     H217567   2.212   0.311   0.728
 1206WAT      O17568   3.781   4.048   3.448
 1206WAT     H117569   3.777   4.131   3.401
 1206WAT     H217570   3.691   4.016   3.449
 1207WAT      O17571   2.095   5.362   2.674
 1207WAT     H117572   2.108   5.448   2.715
 1207WAT     H217573   2.177   5.346   2.627
 1208WAT      O17574   2.165   2.651  11.437
 1208WAT     H117575   2.154   2.620  11.527
 1208WAT     H217576   2.076   2.664  11.405
 1209WAT      O17577   4.311   0.215  10.634
 1209WAT     H117578   4.230   0.257  10.603
 1209WAT     H217579   4.286   0.123  10.646
 1210WAT      O17580   2.316   0.288   3.987
 1210WAT     H117581   2.323   0.243   4.072
 1210WAT     H217582   2.353   0.227   3.924
 1211WAT      O17583   6.028   4.545   1.157
 1211WAT     H117584   6.058   4.458   1.128
 1211WAT     H217585   6.108   4.598   1.160
 1212WAT      O17586   6.041   1.334  11.203
 1212WAT     H117587   5.993   1.389  11.141
 1212WAT     H217588   6.049   1.249  11.158
 1213WAT      O17589   5.351   1.469   3.881
 1213WAT     H117590   5.385   1.402   3.941
 1213WAT     H217591   5.428   1.502   3.836
 1214WAT      O17592   2.893   0.958   0.156
 1214WAT     H117593   2.913   0.868   0.182
 1214WAT     H217594   2.976   0.993   0.123
 1215WAT      O17595   1.287   3.049   0.950
 1215WAT     H117596   1.221   3.036   0.882
 1215WAT     H217597   1.241   3.093   1.021
 1216WAT      O17598   3.065   2.254   2.787
 1216WAT     H117599   3.158   2.274   2.800
 1216WAT     H217600   3.064   2.164   2.755
 1217WAT      O17601   3.254   3.244  11.677
 1217WAT     H117602   3.188   3.312  11.690
 1217WAT     H217603   3.250   3.192  11.757
 1218WAT      O17604   5.624   4.555  12.628
 1218WAT     H117605   5.593   4.641  12.600
 1218WAT     H217606   5.572   4.536  12.707
 1219WAT      O17607   5.960   1.672   3.347
 1219WAT     H117608   6.014   1.595   3.364
 1219WAT     H217609   6.016   1.746   3.369
 1220WAT      O17610   0.527   1.188   0.836
 1220WAT     H117611   0.501   1.097   0.825
 1220WAT     H217612   0.607   1.184   0.887
 1221WAT      O17613   5.816   6.111   9.945
 1221WAT     H117614   5.772   6.132  10.027
 1221WAT     H217615   5.883   6.178   9.935
 1222WAT      O17616   1.930   5.107  11.668
 1222WAT     H117617   1.896   5.112  11.757
 1222WAT     H217618   1.984   5.185  11.658
 1223WAT      O17619   4.305   3.364  11.705
 1223WAT     H117620   4.399   3.368  11.687
 1223WAT     H217621   4.289   3.440  11.762
 1224WAT      O17622   1.046   2.490   8.927
 1224WAT     H117623   0.952   2.473   8.934
 1224WAT     H217624   1.087   2.408   8.954
 1225WAT      O17625   1.262   0.758  11.626
 1225WAT     H117626   1.303   0.674  11.648
 1225WAT     H217627   1.334   0.811  11.591
 1226WAT      O17628   5.064   5.165   4.172
 1226WAT     H117629   4.969   5.169   4.177
 1226WAT     H217630   5.094   5.182   4.261
 1227WAT      O17631   3.977   4.269   2.806
 1227WAT     H117632   4.046   4.212   2.839
 1227WAT     H217633   3.936   4.304   2.885
 1228WAT      O17634   3.336   4.556  10.362
 1228WAT     H117635   3.432   4.564  10.365
 1228WAT     H217636   3.316   4.543  10.269
 1229WAT      O17637   0.416   1.979  11.074
 1229WAT     H117638   0.357   1.917  11.118
 1229WAT     H217639   0.449   2.034  11.145
 1230WAT      O17640   2.860   4.959   2.757
 1230WAT     H117641   2.909   5.026   2.709
 1230WAT     H217642   2.772   4.994   2.764
 1231WAT      O17643   0.365   0.792  12.616
 1231WAT     H117644   0.381   0.883  12.590
 1231WAT     H217645   0.431   0.742  12.568
 1232WAT      O17646   6.146   5.184  10.472
 1232WAT     H117647   6.120   5.198  10.563
 1232WAT     H217648   6.166   5.091  10.467
 1233WAT      O17649   2.531   0.306   2.119
 1233WAT     H117650   2.518   0.217   2.086
 1233WAT     H217651   2.463   0.358   2.077
 1234WAT      O17652   0.251   2.213  10.967
 1234WAT     H117653   0.244   2.262  11.048
 1234WAT     H217654   0.308   2.139  10.988
 1235WAT      O17655   4.205   3.546  10.314
 1235WAT     H117656   4.264   3.537  10.389
 1235WAT     H217657   4.198   3.640  10.300
 1236WAT      O17658   4.371   1.965  10.761
 1236WAT     H117659   4.378   1.885  10.814
 1236WAT     H217660   4.407   1.940  10.676
 1237WAT      O17661   2.430   2.458   3.059
 1237WAT     H117662   2.493   2.529   3.075
 1237WAT     H217663   2.411   2.423   3.146
 1238WAT      O17664   0.777   2.107   8.592
 1238WAT     H117665   0.760   2.013   8.585
 1238WAT     H217666   0.723   2.135   8.666
 1239WAT      O17667   5.467   0.302  11.634
 1239WAT     H117668   5.400   0.239  11.611
 1239WAT     H217669   5.514   0.319  11.553
 1240WAT      O17670   3.334   3.746   2.212
 1240WAT     H117671   3.244   3.761   2.242
 1240WAT     H217672   3.389   3.782   2.282
 1241WAT      O17673   4.491   5.873  10.688
 1241WAT     H117674   4.581   5.839  10.683
 1241WAT     H217675   4.436   5.798  10.666
 1242WAT      O17676   0.659   5.441   3.547
 1242WAT     H117677   0.693   5.375   3.607
 1242WAT     H217678   0.624   5.390   3.473
 1243WAT      O17679   3.462   5.926   2.159
 1243WAT     H117680   3.537   5.974   2.194
 1243WAT     H217681   3.398   5.926   2.230
 1244WAT      O17682   4.982   1.671   8.891
 1244WAT     H117683   4.911   1.652   8.830
 1244WAT     H217684   4.954   1.750   8.938
 1245WAT      O17685   0.253   1.210   1.042
 1245WAT     H117686   0.345   1.209   1.070
 1245WAT     H217687   0.203   1.204   1.124
 1246WAT      O17688   4.552   4.543   2.090
 1246WAT     H117689   4.542   4.453   2.058
 1246WAT     H217690   4.646   4.558   2.088
 1247WAT      O17691   1.865   4.936   7.885
 1247WAT     H117692   1.798   4.925   7.952
 1247WAT     H217693   1.896   5.026   7.896
 1248WAT      O17694   2.927   1.631   3.390
 1248WAT     H117695   2.952   1.722   3.407
 1248WAT     H217696   2.838   1.636   3.355
 1249WAT      O17697   4.685   5.335  12.153
 1249WAT     H117698   4.710   5.302  12.239
 1249WAT     H217699   4.605   5.386  12.168
 1250WAT      O17700   3.306   3.641   0.920
 1250WAT     H117701   3.221   3.678   0.941
 1250WAT     H217702   3.287   3.555   0.884
 1251WAT      O17703   3.057   2.908  11.616
 1251WAT     H117704   3.142   2.888  11.654
 1251WAT     H217705   3.073   2.915  11.522
 1252WAT      O17706   2.719   2.876  12.059
 1252WAT     H117707   2.626   2.898  12.065
 1252WAT     H217708   2.735   2.867  11.965
 1253WAT      O17709   5.036   2.687   9.490
 1253WAT     H117710   5.083   2.614   9.529
 1253WAT     H217711   4.981   2.647   9.422
 1254WAT      O17712   0.106   5.544   2.150
 1254WAT     H117713   0.127   5.555   2.057
 1254WAT     H217714   0.011   5.554   2.154
 1255WAT      O17715   2.212   5.439   4.029
 1255WAT     H117716   2.276   5.402   4.090
 1255WAT     H217717   2.264   5.491   3.968
 1256WAT      O17718   0.905   5.718   4.468
 1256WAT     H117719   0.985   5.725   4.416
 1256WAT     H217720   0.874   5.808   4.476
 1257WAT      O17721   4.500   4.960   1.237
 1257WAT     H117722   4.459   4.936   1.319
 1257WAT     H217723   4.506   4.878   1.187
 1258WAT      O17724   3.887   4.647   0.240
 1258WAT     H117725   3.975   4.677   0.263
 1258WAT     H217726   3.832   4.724   0.250
 1259WAT      O17727   3.240   2.147   3.427
 1259WAT     H117728   3.160   2.194   3.450
 1259WAT     H217729   3.213   2.055   3.422
 1260WAT      O17730   2.040   4.317  12.460
 1260WAT     H117731   2.118   4.369  12.440
 1260WAT     H217732   2.071   4.251  12.522
 1261WAT      O17733   1.758   3.196   1.812
 1261WAT     H117734   1.679   3.224   1.765
 1261WAT     H217735   1.751   3.100   1.814
 1262WAT      O17736   2.476   2.283  12.028
 1262WAT     H117737   2.484   2.200  12.076
 1262WAT     H217738   2.410   2.332  12.077
 1263WAT      O17739   2.102   0.195   4.470
 1263WAT     H117740   2.041   0.128   4.502
 1263WAT     H217741   2.083   0.272   4.523
 1264WAT      O17742   1.790   0.698   3.356
 1264WAT     H117743   1.714   0.642   3.371
 1264WAT     H217744   1.773   0.738   3.271
 1265WAT      O17745   2.980   4.442   0.696
 1265WAT     H117746   2.968   4.476   0.784
 1265WAT     H217747   2.948   4.511   0.638
 1266WAT      O17748   5.432   1.502  12.425
 1266WAT     H117749   5.502   1.560  12.396
 1266WAT     H217750   5.359   1.562  12.445
 1267WAT      O17751   1.795   3.964   0.338
 1267WAT     H117752   1.736   4.017   0.283
 1267WAT     H217753   1.882   3.984   0.305
 1268WAT      O17754   0.454   6.148   4.519
 1268WAT     H117755   0.548   6.138   4.503
 1268WAT     H217756   0.426   6.217   4.459
 1269WAT      O17757   5.982   0.991  10.093
 1269WAT     H117758   6.062   0.942  10.074
 1269WAT     H217759   5.913   0.924  10.097
 1270WAT      O17760   4.459   2.717   8.040
 1270WAT     H117761   4.381   2.765   8.012
 1270WAT     H217762   4.492   2.677   7.960
 1271WAT      O17763   4.832   3.882   8.459
 1271WAT     H117764   4.777   3.948   8.501
 1271WAT     H217765   4.813   3.892   8.365
 1272WAT      O17766   0.011   3.947   1.739
 1272WAT     H117767   0.018   3.973   1.831
 1272WAT     H217768   0.016   3.851   1.741
 1273WAT      O17769   4.462   5.989  11.317
 1273WAT     H117770   4.409   5.943  11.252
 1273WAT     H217771   4.443   6.081  11.302
 1274WAT      O17772   1.635   1.076   2.274
 1274WAT     H117773   1.651   0.990   2.238
 1274WAT     H217774   1.551   1.103   2.238
 1275WAT      O17775   3.026   0.129  10.680
 1275WAT     H117776   3.076   0.056  10.718
 1275WAT     H217777   2.935   0.105  10.694
 1276WAT      O17778   0.435   4.358  12.473
 1276WAT     H117779   0.450   4.265  12.493
 1276WAT     H217780   0.387   4.391  12.549
 1277WAT      O17781   5.317   2.205   3.374
 1277WAT     H117782   5.378   2.170   3.439
 1277WAT     H217783   5.356   2.288   3.347
 1278WAT      O17784   4.177   2.307   2.185
 1278WAT     H117785   4.174   2.214   2.161
 1278WAT     H217786   4.270   2.330   2.176
 1279WAT      O17787   6.111   2.404  12.194
 1279WAT     H117788   6.159   2.339  12.143
 1279WAT     H217789   6.138   2.488  12.159
 1280WAT      O17790   0.267   5.366  10.344
 1280WAT     H117791   0.235   5.284  10.307
 1280WAT     H217792   0.268   5.351  10.439
 1281WAT      O17793   1.415   3.295   9.970
 1281WAT     H117794   1.357   3.321  10.042
 1281WAT     H217795   1.392   3.356   9.899
 1282WAT      O17796   2.049   2.156   3.581
 1282WAT     H117797   2.114   2.205   3.631
 1282WAT     H217798   1.976   2.218   3.570
 1283WAT      O17799   5.782   3.962   0.489
 1283WAT     H117800   5.776   3.905   0.412
 1283WAT     H217801   5.701   4.014   0.485
 1284WAT      O17802   6.049   0.582   3.832
 1284WAT     H117803   5.975   0.631   3.795
 1284WAT     H217804   6.037   0.588   3.927
 1285WAT      O17805   6.199   5.387  12.408
 1285WAT     H117806   6.239   5.348  12.486
 1285WAT     H217807   6.106   5.364  12.416
 1286WAT      O17808   1.425   4.272   0.192
 1286WAT     H117809   1.406   4.297   0.282
 1286WAT     H217810   1.395   4.181   0.185
 1287WAT      O17811   3.605   3.698  10.495
 1287WAT     H117812   3.513   3.694  10.520
 1287WAT     H217813   3.653   3.690  10.577
 1288WAT      O17814   5.464   0.812  11.061
 1288WAT     H117815   5.557   0.791  11.063
 1288WAT     H217816   5.443   0.843  11.149
 1289WAT      O17817   3.989   0.637  10.654
 1289WAT     H117818   3.950   0.630  10.567
 1289WAT     H217819   3.921   0.676  10.708
 1290WAT      O17820   5.155   4.448  11.206
 1290WAT     H117821   5.067   4.416  11.188
 1290WAT     H217822   5.143   4.511  11.277
 1291WAT      O17823   4.015   3.440   8.426
 1291WAT     H117824   4.080   3.509   8.431
 1291WAT     H217825   3.948   3.464   8.490
 1292WAT      O17826   0.159   2.652   8.398
 1292WAT     H117827   0.152   2.613   8.311
 1292WAT     H217828   0.252   2.672   8.408
 1293WAT      O17829   0.227   2.345   4.644
 1293WAT     H117830   0.266   2.258   4.653
 1293WAT     H217831   0.295   2.405   4.672
 1294WAT      O17832   2.961   4.788   3.548
 1294WAT     H117833   2.971   4.740   3.466
 1294WAT     H217834   3.015   4.866   3.537
 1295WAT      O17835   3.769   3.319   4.483
 1295WAT     H117836   3.792   3.376   4.409
 1295WAT     H217837   3.852   3.305   4.528
 1296WAT      O17838   0.585   6.135   1.876
 1296WAT     H117839   0.534   6.177   1.945
 1296WAT     H217840   0.602   6.047   1.908
 1297WAT      O17841   5.640   3.500  11.187
 1297WAT     H117842   5.594   3.582  11.167
 1297WAT     H217843   5.653   3.459  11.102
 1298WAT      O17844   4.243   5.703  10.136
 1298WAT     H117845   4.332   5.683  10.106
 1298WAT     H217846   4.253   5.777  10.196
 1299WAT      O17847   0.748   4.911   9.890
 1299WAT     H117848   0.702   4.980   9.939
 1299WAT     H217849   0.814   4.879   9.951
 1300WAT      O17850   1.530   1.228   1.123
 1300WAT     H117851   1.576   1.275   1.192
 1300WAT     H217852   1.582   1.244   1.044
 1301WAT      O17853   6.057   5.695   2.996
 1301WAT     H117854   6.082   5.765   3.057
 1301WAT     H217855   5.986   5.734   2.944
 1302WAT      O17856   2.640   5.729   4.896
 1302WAT     H117857   2.659   5.718   4.803
 1302WAT     H217858   2.718   5.773   4.931
 1303WAT      O17859   1.799   3.476   0.887
 1303WAT     H117860   1.862   3.423   0.840
 1303WAT     H217861   1.838   3.487   0.974
 1304WAT      O17862   6.071   3.598  10.064
 1304WAT     H117863   5.999   3.585  10.125
 1304WAT     H217864   6.049   3.679  10.018
 1305WAT      O17865   5.166   4.491   8.834
 1305WAT     H117866   5.261   4.497   8.832
 1305WAT     H217867   5.141   4.468   8.745
 1306WAT      O17868   3.987   5.041   1.911
 1306WAT     H117869   4.003   4.947   1.904
 1306WAT     H217870   4.074   5.079   1.920
 1307WAT      O17871   2.051   0.386   4.908
 1307WAT     H117872   2.112   0.409   4.979
 1307WAT     H217873   1.997   0.317   4.945
 1308WAT      O17874   5.799   1.056   7.468
 1308WAT     H117875   5.889   1.080   7.490
 1308WAT     H217876   5.808   0.972   7.422
 1309WAT      O17877   5.176   2.000   7.036
 1309WAT     H117878   5.209   2.059   7.104
 1309WAT     H217879   5.185   1.912   7.074
 1310WAT      O17880   6.269   6.113   8.609
 1310WAT     H117881   6.206   6.128   8.538
 1310WAT     H217882   6.217   6.117   8.689
 1311WAT      O17883   0.335   4.472   1.652
 1311WAT     H117884   0.354   4.378   1.663
 1311WAT     H217885   0.381   4.496   1.571
 1312WAT      O17886   4.560   0.130   7.695
 1312WAT     H117887   4.545   0.131   7.790
 1312WAT     H217888   4.565   0.037   7.673
 1313WAT      O17889   3.280   2.668   1.056
 1313WAT     H117890   3.208   2.723   1.026
 1313WAT     H217891   3.255   2.580   1.028
 1314WAT      O17892   4.830   2.547   9.045
 1314WAT     H117893   4.845   2.456   9.018
 1314WAT     H217894   4.836   2.597   8.964
 1315WAT      O17895   4.626   4.047   8.530
 1315WAT     H117896   4.540   4.020   8.497
 1315WAT     H217897   4.615   4.140   8.550
 1316WAT      O17898   6.131   3.549   1.569
 1316WAT     H117899   6.183   3.470   1.585
 1316WAT     H217900   6.185   3.621   1.601
 1317WAT      O17901   1.921   2.970   0.724
 1317WAT     H117902   1.931   2.878   0.699
 1317WAT     H217903   1.839   2.972   0.774
 1318WAT      O17904   3.531   2.668   0.413
 1318WAT     H117905   3.538   2.715   0.330
 1318WAT     H217906   3.573   2.583   0.396
 1319WAT      O17907   2.653   1.617   0.870
 1319WAT     H117908   2.724   1.667   0.910
 1319WAT     H217909   2.695   1.568   0.800
 1320WAT      O17910   3.090   4.232   2.992
 1320WAT     H117911   3.001   4.257   2.965
 1320WAT     H217912   3.139   4.223   2.910
 1321WAT      O17913   3.384   3.533  11.578
 1321WAT     H117914   3.331   3.501  11.652
 1321WAT     H217915   3.381   3.462  11.514
 1322WAT      O17916   0.826   2.775   0.453
 1322WAT     H117917   0.741   2.744   0.483
 1322WAT     H217918   0.818   2.781   0.358
 1323WAT      O17919   2.991   0.460  12.482
 1323WAT     H117920   2.965   0.409  12.558
 1323WAT     H217921   2.914   0.461  12.425
 1324WAT      O17922   2.474   0.704  12.615
 1324WAT     H117923   2.568   0.707  12.598
 1324WAT     H217924   2.452   0.793  12.642
 1325WAT      O17925   3.580   5.545   8.964
 1325WAT     H117926   3.618   5.543   8.876
 1325WAT     H217927   3.576   5.453   8.990
 1326WAT      O17928   3.221   5.644   2.321
 1326WAT     H117929   3.259   5.556   2.318
 1326WAT     H217930   3.127   5.629   2.331
 1327WAT      O17931   4.967   1.175   3.217
 1327WAT     H117932   4.927   1.148   3.134
 1327WAT     H217933   4.892   1.200   3.272
 1328WAT      O17934   0.494   0.453   1.604
 1328WAT     H117935   0.423   0.452   1.668
 1328WAT     H217936   0.561   0.509   1.644
 1329WAT      O17937   0.696   6.175  10.098
 1329WAT     H117938   0.608   6.139  10.115
 1329WAT     H217939   0.680   6.265  10.069
 1330WAT      O17940   2.690   0.634  10.321
 1330WAT     H117941   2.680   0.728  10.308
 1330WAT     H217942   2.724   0.626  10.411
 1331WAT      O17943   3.232   1.767   0.054
 1331WAT     H117944   3.268   1.743  -0.031
 1331WAT     H217945   3.172   1.839   0.035
 1332WAT      O17946   0.677   4.681   1.947
 1332WAT     H117947   0.693   4.706   2.038
 1332WAT     H217948   0.683   4.585   1.947
 1333WAT      O17949   1.906   1.280   4.541
 1333WAT     H117950   1.952   1.237   4.614
 1333WAT     H217951   1.872   1.361   4.579
 1334WAT      O17952   5.377   1.727   3.302
 1334WAT     H117953   5.462   1.696   3.332
 1334WAT     H217954   5.346   1.784   3.373
 1335WAT      O17955   6.133   6.095  12.496
 1335WAT     H117956   6.066   6.121  12.560
 1335WAT     H217957   6.090   6.102  12.411
 1336WAT      O17958   3.691   6.137   9.226
 1336WAT     H117959   3.596   6.140   9.236
 1336WAT     H217960   3.707   6.167   9.136
 1337WAT      O17961   1.039   3.625  10.948
 1337WAT     H117962   0.956   3.661  10.979
 1337WAT     H217963   1.080   3.697  10.899
 1338WAT      O17964   5.148   3.170   3.516
 1338WAT     H117965   5.121   3.158   3.425
 1338WAT     H217966   5.069   3.197   3.561
 1339WAT      O17967   3.980   2.633  11.256
 1339WAT     H117968   3.952   2.651  11.166
 1339WAT     H217969   4.038   2.557  11.248
 1340WAT      O17970   5.732   5.574  12.583
 1340WAT     H117971   5.649   5.540  12.550
 1340WAT     H217972   5.725   5.669  12.572
 1341WAT      O17973   0.098   4.556  10.156
 1341WAT     H117974   0.139   4.629  10.202
 1341WAT     H217975   0.105   4.579  10.063
 1342WAT      O17976   1.501   5.661  11.230
 1342WAT     H117977   1.453   5.664  11.147
 1342WAT     H217978   1.439   5.695  11.294
 1343WAT      O17979   2.419   4.236   3.202
 1343WAT     H117980   2.399   4.295   3.129
 1343WAT     H217981   2.385   4.151   3.175
 1344WAT      O17982   4.984   0.529   9.896
 1344WAT     H117983   4.996   0.624   9.894
 1344WAT     H217984   4.965   0.506   9.805
 1345WAT      O17985   1.659   4.960   9.214
 1345WAT     H117986   1.622   4.959   9.302
 1345WAT     H217987   1.735   4.901   9.219
 1346WAT      O17988   1.489   3.976   3.938
 1346WAT     H117989   1.470   3.912   4.006
 1346WAT     H217990   1.471   3.931   3.855
 1347WAT      O17991   3.465   0.441   8.900
 1347WAT     H117992   3.387   0.417   8.850
 1347WAT     H217993   3.451   0.532   8.925
 1348WAT      O17994   1.566   0.538   3.371
 1348WAT     H117995   1.519   0.546   3.453
 1348WAT     H217996   1.500   0.557   3.304
 1349WAT      O17997   5.844   4.431   8.553
 1349WAT     H117998   5.893   4.508   8.523
 1349WAT     H217999   5.787   4.409   8.480
 1350WAT      O18000   1.080   6.129   9.246
 1350WAT     H118001   0.996   6.173   9.236
 1350WAT     H218002   1.134   6.192   9.294
 1351WAT      O18003   1.579   3.322   1.494
 1351WAT     H118004   1.656   3.377   1.510
 1351WAT     H218005   1.514   3.352   1.557
 1352WAT      O18006   4.060   2.808   9.908
 1352WAT     H118007   4.113   2.730   9.929
 1352WAT     H218008   3.978   2.772   9.874
 1353WAT      O18009   1.633   0.173  11.654
 1353WAT     H118010   1.558   0.120  11.681
 1353WAT     H218011   1.694   0.110  11.614
 1354WAT      O18012   3.168   1.911  12.336
 1354WAT     H118013   3.250   1.951  12.307
 1354WAT     H218014   3.195   1.829  12.377
 1355WAT      O18015   0.475   3.330   4.742
 1355WAT     H118016   0.390   3.290   4.725
 1355WAT     H218017   0.485   3.395   4.672
 1356WAT      O18018   0.107   1.722   8.618
 1356WAT     H118019   0.174   1.659   8.644
 1356WAT     H218020   0.034   1.669   8.587
 1357WAT      O18021   1.889   0.052   9.605
 1357WAT     H118022   1.959   0.053   9.670
 1357WAT     H218023   1.918  -0.012   9.540
 1358WAT      O18024   0.843   2.915  11.561
 1358WAT     H118025   0.764   2.902  11.508
 1358WAT     H218026   0.834   2.852  11.633
 1359WAT      O18027   2.677   1.292  10.983
 1359WAT     H118028   2.689   1.347  10.905
 1359WAT     H218029   2.745   1.225  10.975
 1360WAT      O18030   0.495   0.984   2.469
 1360WAT     H118031   0.561   0.947   2.527
 1360WAT     H218032   0.469   0.912   2.412
 1361WAT      O18033   2.055   3.415  10.019
 1361WAT     H118034   2.068   3.510  10.017
 1361WAT     H218035   2.136   3.381  10.056
 1362WAT      O18036   1.215   3.625   9.101
 1362WAT     H118037   1.218   3.698   9.039
 1362WAT     H218038   1.241   3.664   9.185
 1363WAT      O18039   1.396   2.672   9.898
 1363WAT     H118040   1.442   2.591   9.878
 1363WAT     H218041   1.411   2.728   9.821
 1364WAT      O18042   3.769   3.756  10.995
 1364WAT     H118043   3.713   3.698  11.046
 1364WAT     H218044   3.726   3.761  10.909
 1365WAT      O18045   4.599   4.475   4.434
 1365WAT     H118046   4.540   4.549   4.421
 1365WAT     H218047   4.686   4.512   4.424
 1366WAT      O18048   0.133   2.959   0.087
 1366WAT     H118049   0.063   2.895   0.069
 1366WAT     H218050   0.087   3.036   0.120
 1367WAT      O18051   1.625   5.810   8.708
 1367WAT     H118052   1.561   5.846   8.770
 1367WAT     H218053   1.600   5.718   8.699
 1368WAT      O18054   2.233   5.874   2.759
 1368WAT     H118055   2.314   5.923   2.741
 1368WAT     H218056   2.173   5.940   2.794
 1369WAT      O18057   4.156   3.895   1.297
 1369WAT     H118058   4.179   3.985   1.274
 1369WAT     H218059   4.060   3.897   1.304
 1370WAT      O18060   0.084   2.177   3.313
 1370WAT     H118061   0.128   2.221   3.241
 1370WAT     H218062   0.075   2.086   3.284
 1371WAT      O18063   2.836   4.764   9.831
 1371WAT     H118064   2.903   4.829   9.810
 1371WAT     H218065   2.880   4.679   9.818
 1372WAT      O18066   3.527   3.377   0.548
 1372WAT     H118067   3.493   3.467   0.547
 1372WAT     H218068   3.543   3.357   0.455
 1373WAT      O18069   1.811   0.546   4.093
 1373WAT     H118070   1.817   0.638   4.068
 1373WAT     H218071   1.819   0.498   4.011
 1374WAT      O18072   3.811   3.010   0.869
 1374WAT     H118073   3.765   3.088   0.902
 1374WAT     H218074   3.767   2.937   0.912
 1375WAT      O18075   4.241   3.641   1.266
 1375WAT     H118076   4.309   3.619   1.329
 1375WAT     H218077   4.206   3.724   1.296
 1376WAT      O18078   0.969   2.062   9.825
 1376WAT     H118079   0.976   2.153   9.797
 1376WAT     H218080   0.875   2.047   9.834
 1377WAT      O18081   3.223   4.067  11.880
 1377WAT     H118082   3.159   4.123  11.924
 1377WAT     H218083   3.280   4.127  11.833
 1378WAT      O18084   6.176   5.759   9.646
 1378WAT     H118085   6.239   5.745   9.574
 1378WAT     H218086   6.219   5.721   9.722
 1379WAT      O18087   5.202   0.709  11.630
 1379WAT     H118088   5.172   0.750  11.711
 1379WAT     H218089   5.248   0.630  11.657
 1380WAT      O18090   4.419   0.870   1.233
 1380WAT     H118091   4.337   0.849   1.278
 1380WAT     H218092   4.426   0.965   1.237
 1381WAT      O18093   3.308   0.544  11.083
 1381WAT     H118094   3.238   0.525  11.020
 1381WAT     H218095   3.269   0.523  11.168
 1382WAT      O18096   3.454   5.753   3.601
 1382WAT     H118097   3.431   5.846   3.592
 1382WAT     H218098   3.393   5.708   3.542
 1383WAT      O18099   4.028   0.715   1.029
 1383WAT     H118100   3.935   0.695   1.039
 1383WAT     H218101   4.071   0.674   1.104
 1384WAT      O18102   0.536   4.110  10.264
 1384WAT     H118103   0.444   4.092  10.286
 1384WAT     H218104   0.551   4.062  10.182
 1385WAT      O18105   0.698   6.144   9.102
 1385WAT     H118106   0.689   6.092   9.022
 1385WAT     H218107   0.741   6.225   9.074
 1386WAT      O18108   2.922   4.729   1.574
 1386WAT     H118109   2.989   4.662   1.559
 1386WAT     H218110   2.957   4.783   1.645
 1387WAT      O18111   3.176   0.233  11.035
 1387WAT     H118112   3.182   0.146  11.074
 1387WAT     H218113   3.240   0.285  11.084
 1388WAT      O18114   3.311   4.025  12.214
 1388WAT     H118115   3.280   4.108  12.179
 1388WAT     H218116   3.396   4.011  12.172
 1389WAT      O18117   1.338   1.816   3.402
 1389WAT     H118118   1.387   1.859   3.332
 1389WAT     H218119   1.282   1.885   3.438
 1390WAT      O18120   5.201   2.243   0.326
 1390WAT     H118121   5.138   2.177   0.355
 1390WAT     H218122   5.156   2.327   0.338
 1391WAT      O18123   3.176   4.368   4.504
 1391WAT     H118124   3.245   4.365   4.570
 1391WAT     H218125   3.111   4.306   4.534
 1392WAT      O18126   1.484   5.303   1.391
 1392WAT     H118127   1.549   5.246   1.432
 1392WAT     H218128   1.402   5.254   1.396
 1393WAT      O18129   0.600   1.306  10.766
 1393WAT     H118130   0.612   1.300  10.671
 1393WAT     H218131   0.671   1.252  10.803
 1394WAT      O18132   5.819   4.333  11.143
 1394WAT     H118133   5.770   4.270  11.196
 1394WAT     H218134   5.824   4.292  11.057
 1395WAT      O18135   3.301   2.829   9.224
 1395WAT     H118136   3.302   2.752   9.280
 1395WAT     H218137   3.370   2.813   9.160
 1396WAT      O18138   0.623   3.303  11.794
 1396WAT     H118139   0.535   3.282  11.764
 1396WAT     H218140   0.666   3.218  11.801
 1397WAT      O18141   0.474   1.668   0.840
 1397WAT     H118142   0.388   1.652   0.800
 1397WAT     H218143   0.481   1.763   0.844
 1398WAT      O18144   2.346   4.922   2.643
 1398WAT     H118145   2.275   4.985   2.639
 1398WAT     H218146   2.306   4.842   2.678
 1399WAT      O18147   1.804   5.294   4.246
 1399WAT     H118148   1.750   5.231   4.198
 1399WAT     H218149   1.743   5.361   4.276
 1400WAT      O18150   5.633   2.913   9.003
 1400WAT     H118151   5.667   2.987   9.054
 1400WAT     H218152   5.544   2.937   8.981
 1401WAT      O18153   2.410   1.672  11.011
 1401WAT     H118154   2.324   1.667  11.053
 1401WAT     H218155   2.404   1.612  10.936
 1402WAT      O18156   5.807   1.958   0.134
 1402WAT     H118157   5.732   1.908   0.166
 1402WAT     H218158   5.769   2.036   0.093
 1403WAT      O18159   1.990   4.648   9.063
 1403WAT     H118160   2.004   4.556   9.044
 1403WAT     H218161   1.895   4.658   9.069
 1404WAT      O18162   5.399   1.951   1.790
 1404WAT     H118163   5.346   1.873   1.775
 1404WAT     H218164   5.472   1.943   1.728
 1405WAT      O18165   3.239   3.414   9.551
 1405WAT     H118166   3.161   3.438   9.501
 1405WAT     H218167   3.284   3.498   9.566
 1406WAT      O18168   5.334   0.953   1.210
 1406WAT     H118169   5.256   0.915   1.250
 1406WAT     H218170   5.400   0.952   1.279
 1407WAT      O18171   2.971   2.589  11.082
 1407WAT     H118172   3.003   2.662  11.030
 1407WAT     H218173   3.009   2.511  11.041
 1408WAT      O18174   1.719   3.658  11.301
 1408WAT     H118175   1.746   3.642  11.210
 1408WAT     H218176   1.792   3.707  11.339
 1409WAT      O18177   2.243   1.946   0.541
 1409WAT     H118178   2.194   1.927   0.461
 1409WAT     H218179   2.301   2.019   0.516
 1410WAT      O18180   2.371   3.143   9.138
 1410WAT     H118181   2.423   3.223   9.143
 1410WAT     H218182   2.294   3.168   9.086
 1411WAT      O18183   3.203   0.044   8.283
 1411WAT     H118184   3.271   0.100   8.322
 1411WAT     H218185   3.251  -0.017   8.227
 1412WAT      O18186   2.409   2.902   3.872
 1412WAT     H118187   2.363   2.899   3.955
 1412WAT     H218188   2.480   2.839   3.881
 1413WAT      O18189   1.031   3.686   0.768
 1413WAT     H118190   1.028   3.627   0.842
 1413WAT     H218191   0.939   3.704   0.748
 1414WAT      O18192   4.554   4.418  10.423
 1414WAT     H118193   4.557   4.479  10.497
 1414WAT     H218194   4.558   4.475  10.346
 1415WAT      O18195   3.810   4.914   8.473
 1415WAT     H118196   3.869   4.914   8.548
 1415WAT     H218197   3.857   4.964   8.406
 1416WAT      O18198   3.182   2.781   8.574
 1416WAT     H118199   3.155   2.735   8.653
 1416WAT     H218200   3.120   2.751   8.507
 1417WAT      O18201   5.923   6.011   0.305
 1417WAT     H118202   5.846   5.963   0.335
 1417WAT     H218203   5.951   5.964   0.227
 1418WAT      O18204   0.255   6.112   1.298
 1418WAT     H118205   0.224   6.156   1.219
 1418WAT     H218206   0.268   6.021   1.270
 1419WAT      O18207   2.887   1.374  12.502
 1419WAT     H118208   2.819   1.346  12.563
 1419WAT     H218209   2.969   1.362  12.551
 1420WAT      O18210   4.317   3.329   2.212
 1420WAT     H118211   4.226   3.301   2.204
 1420WAT     H218212   4.348   3.289   2.293
 1421WAT      O18213   1.805   5.262   8.885
 1421WAT     H118214   1.854   5.334   8.925
 1421WAT     H218215   1.859   5.185   8.902
 1422WAT      O18216   3.899   1.262   0.741
 1422WAT     H118217   3.987   1.255   0.706
 1422WAT     H218218   3.910   1.248   0.835
 1423WAT      O18219   2.002   1.889   4.532
 1423WAT     H118220   1.994   1.906   4.626
 1423WAT     H218221   2.040   1.802   4.527
 1424WAT      O18222   0.470   2.411   3.977
 1424WAT     H118223   0.497   2.391   4.067
 1424WAT     H218224   0.428   2.331   3.946
 1425WAT      O18225   1.788   1.112   0.059
 1425WAT     H118226   1.826   1.179   0.002
 1425WAT     H218227   1.830   1.125   0.144
 1426WAT      O18228   5.618   6.018   1.217
 1426WAT     H118229   5.693   5.989   1.166
 1426WAT     H218230   5.598   6.106   1.183
 1427WAT      O18231   4.685   4.259   4.617
 1427WAT     H118232   4.653   4.313   4.544
 1427WAT     H218233   4.612   4.259   4.679
 1428WAT      O18234   3.565   4.180  12.274
 1428WAT     H118235   3.492   4.187  12.335
 1428WAT     H218236   3.627   4.248  12.303
 1429WAT      O18237   5.151   0.807   0.780
 1429WAT     H118238   5.191   0.889   0.811
 1429WAT     H218239   5.131   0.759   0.860
 1430WAT      O18240   1.807   0.378   3.841
 1430WAT     H118241   1.897   0.359   3.815
 1430WAT     H218242   1.753   0.340   3.772
 1431WAT      O18243   4.333   2.047   0.826
 1431WAT     H118244   4.402   1.981   0.822
 1431WAT     H218245   4.293   2.035   0.913
 1432WAT      O18246   0.959   0.347  11.261
 1432WAT     H118247   0.921   0.435  11.252
 1432WAT     H218248   1.011   0.336  11.181
 1433WAT      O18249   3.842   3.589   0.171
 1433WAT     H118250   3.907   3.653   0.142
 1433WAT     H218251   3.849   3.517   0.108
 1434WAT      O18252   1.830   1.023   4.479
 1434WAT     H118253   1.855   1.114   4.492
 1434WAT     H218254   1.839   1.009   4.384
 1435WAT      O18255   2.580   0.234   9.794
 1435WAT     H118256   2.507   0.270   9.744
 1435WAT     H218257   2.563   0.139   9.797
 1436WAT      O18258   1.160   3.924   0.926
 1436WAT     H118259   1.150   4.014   0.893
 1436WAT     H218260   1.084   3.878   0.893
 1437WAT      O18261   2.500   0.998   8.580
 1437WAT     H118262   2.530   0.915   8.544
 1437WAT     H218263   2.549   1.065   8.531
 1438WAT      O18264   3.033   5.550  12.169
 1438WAT     H118265   3.093   5.479  12.146
 1438WAT     H218266   2.968   5.509  12.226
 1439WAT      O18267   2.918   5.509   3.891
 1439WAT     H118268   2.840   5.564   3.878
 1439WAT     H218269   2.938   5.518   3.984
 1440WAT      O18270   3.215   5.096  10.455
 1440WAT     H118271   3.192   5.072  10.545
 1440WAT     H218272   3.226   5.013  10.410
 1441WAT      O18273   2.092   3.841  10.271
 1441WAT     H118274   2.081   3.872  10.181
 1441WAT     H218275   2.025   3.775  10.283
 1442WAT      O18276   4.002   3.908   8.934
 1442WAT     H118277   3.948   3.975   8.890
 1442WAT     H218278   4.071   3.888   8.871
 1443WAT      O18279   1.084   3.240   0.823
 1443WAT     H118280   1.132   3.309   0.870
 1443WAT     H218281   1.036   3.194   0.892
 1444WAT      O18282   2.605   3.650   2.866
 1444WAT     H118283   2.692   3.648   2.827
 1444WAT     H218284   2.545   3.662   2.792
 1445WAT      O18285   2.533   5.910   0.419
 1445WAT     H118286   2.573   5.965   0.351
 1445WAT     H218287   2.463   5.965   0.456
 1446WAT      O18288   0.401   5.719   0.444
 1446WAT     H118289   0.469   5.710   0.377
 1446WAT     H218290   0.439   5.680   0.523
 1447WAT      O18291   4.518   3.893   3.707
 1447WAT     H118292   4.503   3.963   3.771
 1447WAT     H218293   4.571   3.934   3.639
 1448WAT      O18294   0.503   4.407   2.085
 1448WAT     H118295   0.431   4.355   2.050
 1448WAT     H218296   0.579   4.382   2.034
 1449WAT      O18297   3.414   5.649   2.741
 1449WAT     H118298   3.439   5.704   2.816
 1449WAT     H218299   3.455   5.565   2.759
 1450WAT      O18300   3.634   5.289   2.261
 1450WAT     H118301   3.630   5.278   2.166
 1450WAT     H218302   3.709   5.347   2.275
 1451WAT      O18303   0.050   2.857   3.811
 1451WAT     H118304   0.108   2.828   3.882
 1451WAT     H218305  -0.036   2.820   3.833
 1452WAT      O18306   0.763   5.257   0.164
 1452WAT     H118307   0.761   5.196   0.238
 1452WAT     H218308   0.697   5.323   0.186
 1453WAT      O18309   3.028   6.050   8.508
 1453WAT     H118310   2.983   5.983   8.457
 1453WAT     H218311   3.087   6.001   8.566
 1454WAT      O18312   5.601   4.661   2.337
 1454WAT     H118313   5.655   4.593   2.298
 1454WAT     H218314   5.661   4.710   2.393
 1455WAT      O18315   4.101   3.693   1.619
 1455WAT     H118316   4.162   3.725   1.552
 1455WAT     H218317   4.137   3.724   1.702
 1456WAT      O18318   4.620   0.246  10.641
 1456WAT     H118319   4.606   0.332  10.600
 1456WAT     H218320   4.532   0.214  10.659
 1457WAT      O18321   2.522   4.831   0.553
 1457WAT     H118322   2.479   4.912   0.582
 1457WAT     H218323   2.473   4.761   0.595
 1458WAT      O18324   3.213   1.612   8.744
 1458WAT     H118325   3.168   1.653   8.818
 1458WAT     H218326   3.237   1.525   8.775
 1459WAT      O18327   6.160   0.553   9.302
 1459WAT     H118328   6.123   0.470   9.331
 1459WAT     H218329   6.228   0.528   9.239
 1460WAT      O18330   2.173   3.299  11.216
 1460WAT     H118331   2.104   3.333  11.158
 1460WAT     H218332   2.252   3.346  11.189
 1461WAT      O18333   1.034   0.078   3.930
 1461WAT     H118334   1.126   0.052   3.923
 1461WAT     H218335   1.020   0.094   4.023
 1462WAT      O18336   0.772   1.708   1.116
 1462WAT     H118337   0.707   1.664   1.171
 1462WAT     H218338   0.823   1.636   1.078
 1463WAT      O18339   0.403   2.892   0.081
 1463WAT     H118340   0.316   2.872   0.114
 1463WAT     H218341   0.457   2.818   0.110
 1464WAT      O18342   0.018   3.137   3.075
 1464WAT     H118343   0.026   3.135   2.979
 1464WAT     H218344   0.108   3.131   3.107
 1465WAT      O18345   5.662   1.604   8.818
 1465WAT     H118346   5.676   1.550   8.896
 1465WAT     H218347   5.745   1.600   8.771
 1466WAT      O18348   1.763   3.476  12.216
 1466WAT     H118349   1.776   3.426  12.135
 1466WAT     H218350   1.693   3.429  12.262
 1467WAT      O18351   1.973   5.904  10.019
 1467WAT     H118352   2.046   5.935   9.966
 1467WAT     H218353   1.895   5.925   9.967
 1468WAT      O18354   6.064   2.571  12.464
 1468WAT     H118355   6.121   2.626  12.410
 1468WAT     H218356   6.008   2.526  12.401
 1469WAT      O18357   6.233   3.282  11.576
 1469WAT     H118358   6.282   3.266  11.656
 1469WAT     H218359   6.186   3.201  11.559
 1470WAT      O18360   0.823   0.246   2.780
 1470WAT     H118361   0.849   0.244   2.872
 1470WAT     H218362   0.735   0.208   2.779
 1471WAT      O18363   2.400   5.279   1.668
 1471WAT     H118364   2.318   5.303   1.625
 1471WAT     H218365   2.446   5.362   1.683
 1472WAT      O18366   6.184   0.495  11.890
 1472WAT     H118367   6.192   0.583  11.928
 1472WAT     H218368   6.129   0.448  11.953
 1473WAT      O18369   4.135   0.149   0.395
 1473WAT     H118370   4.176   0.086   0.455
 1473WAT     H218371   4.041   0.135   0.406
 1474WAT      O18372   1.317   0.147  10.742
 1474WAT     H118373   1.366   0.066  10.729
 1474WAT     H218374   1.323   0.192  10.657
 1475WAT      O18375   5.908   0.989  10.375
 1475WAT     H118376   5.992   0.994  10.422
 1475WAT     H218377   5.928   1.022  10.287
 1476WAT      O18378   2.408   2.480   8.777
 1476WAT     H118379   2.327   2.437   8.751
 1476WAT     H218380   2.414   2.464   8.871
 1477WAT      O18381   2.548   3.842  11.006
 1477WAT     H118382   2.605   3.791  11.064
 1477WAT     H218383   2.510   3.909  11.062
 1478WAT      O18384   4.277   1.773   2.989
 1478WAT     H118385   4.203   1.736   3.037
 1478WAT     H218386   4.254   1.762   2.897
 1479WAT      O18387   2.810   3.765  10.913
 1479WAT     H118388   2.799   3.830  10.982
 1479WAT     H218389   2.821   3.682  10.959
 1480WAT      O18390   4.732   4.930  10.206
 1480WAT     H118391   4.729   4.881  10.288
 1480WAT     H218392   4.773   5.014  10.230
 1481WAT      O18393   1.028   3.320   0.293
 1481WAT     H118394   1.019   3.391   0.229
 1481WAT     H218395   0.974   3.348   0.367
 1482WAT      O18396   3.577   0.842  11.384
 1482WAT     H118397   3.547   0.932  11.379
 1482WAT     H218398   3.502   0.793  11.417
 1483WAT      O18399   1.144   4.551   3.882
 1483WAT     H118400   1.157   4.481   3.819
 1483WAT     H218401   1.232   4.576   3.909
 1484WAT      O18402   1.272   5.454   9.716
 1484WAT     H118403   1.243   5.543   9.695
 1484WAT     H218404   1.203   5.419   9.772
 1485WAT      O18405   3.262   0.878  10.222
 1485WAT     H118406   3.237   0.939  10.153
 1485WAT     H218407   3.357   0.874  10.218
 1486WAT      O18408   2.218   4.202  10.722
 1486WAT     H118409   2.133   4.199  10.765
 1486WAT     H218410   2.277   4.155  10.781
 1487WAT      O18411   5.668   2.998  11.957
 1487WAT     H118412   5.693   2.963  11.871
 1487WAT     H218413   5.743   2.981  12.013
 1488WAT      O18414   4.299   2.546   0.400
 1488WAT     H118415   4.282   2.456   0.372
 1488WAT     H218416   4.299   2.597   0.319
 1489WAT      O18417   3.651   0.243   2.323
 1489WAT     H118418   3.622   0.158   2.357
 1489WAT     H218419   3.721   0.221   2.262
 1490WAT      O18420   2.520   5.540   0.689
 1490WAT     H118421   2.609   5.563   0.663
 1490WAT     H218422   2.516   5.444   0.680
 1491WAT      O18423   3.807   4.466   3.566
 1491WAT     H118424   3.858   4.459   3.485
 1491WAT     H218425   3.723   4.426   3.544
 1492WAT      O18426   1.607   2.432   2.536
 1492WAT     H118427   1.641   2.383   2.461
 1492WAT     H218428   1.575   2.514   2.498
 1493WAT      O18429   4.730   1.021   3.902
 1493WAT     H118430   4.666   1.028   3.973
 1493WAT     H218431   4.772   0.936   3.916
 1494WAT      O18432   5.518   4.871   2.165
 1494WAT     H118433   5.529   4.819   2.086
 1494WAT     H218434   5.531   4.810   2.237
 1495WAT      O18435   1.204   3.975   2.038
 1495WAT     H118436   1.129   4.018   1.996
 1495WAT     H218437   1.281   4.018   2.000
 1496WAT      O18438   5.662   6.153  10.539
 1496WAT     H118439   5.593   6.139  10.603
 1496WAT     H218440   5.739   6.112  10.577
 1497WAT      O18441   0.612   0.017   3.784
 1497WAT     H118442   0.573  -0.057   3.738
 1497WAT     H218443   0.620   0.085   3.718
 1498WAT      O18444   3.206   3.440   7.974
 1498WAT     H118445   3.192   3.360   7.922
 1498WAT     H218446   3.270   3.490   7.924
 1499WAT      O18447   4.567   1.149   3.490
 1499WAT     H118448   4.608   1.228   3.526
 1499WAT     H218449   4.479   1.149   3.527
 1500WAT      O18450   3.793   1.564   1.682
 1500WAT     H118451   3.733   1.636   1.661
 1500WAT     H218452   3.837   1.592   1.762
 1501WAT      O18453   4.730   0.547  11.709
 1501WAT     H118454   4.668   0.475  11.698
 1501WAT     H218455   4.807   0.519  11.660
 1502WAT      O18456   4.882   5.083   0.562
 1502WAT     H118457   4.825   5.146   0.607
 1502WAT     H218458   4.960   5.078   0.616
 1503WAT      O18459   5.105   6.115  11.817
 1503WAT     H118460   5.108   6.115  11.721
 1503WAT     H218461   5.012   6.111  11.838
 1504WAT      O18462   5.538   1.200   9.949
 1504WAT     H118463   5.506   1.283   9.915
 1504WAT     H218464   5.616   1.222   9.999
 1505WAT      O18465   0.160   2.989   8.746
 1505WAT     H118466   0.113   2.956   8.670
 1505WAT     H218467   0.128   3.079   8.757
 1506WAT      O18468   3.523   5.887  11.514
 1506WAT     H118469   3.530   5.822  11.444
 1506WAT     H218470   3.537   5.838  11.595
 1507WAT      O18471   0.273   2.652   2.348
 1507WAT     H118472   0.178   2.642   2.351
 1507WAT     H218473   0.305   2.567   2.318
 1508WAT      O18474   0.673   1.198   3.695
 1508WAT     H118475   0.696   1.276   3.645
 1508WAT     H218476   0.740   1.133   3.671
 1509WAT      O18477   0.692   2.570  10.500
 1509WAT     H118478   0.676   2.479  10.474
 1509WAT     H218479   0.614   2.617  10.469
 1510WAT      O18480   3.034   2.540   1.485
 1510WAT     H118481   3.116   2.570   1.447
 1510WAT     H218482   3.041   2.445   1.486
 1511WAT      O18483   2.108   4.608   9.858
 1511WAT     H118484   2.143   4.691   9.890
 1511WAT     H218485   2.022   4.631   9.822
 1512WAT      O18486   4.989   3.836   9.190
 1512WAT     H118487   4.997   3.847   9.096
 1512WAT     H218488   5.041   3.758   9.211
 1513WAT      O18489   5.775   3.129  12.471
 1513WAT     H118490   5.803   3.073  12.544
 1513WAT     H218491   5.687   3.157  12.496
 1514WAT      O18492   2.931   4.052   3.120
 1514WAT     H118493   2.847   4.097   3.121
 1514WAT     H218494   2.989   4.109   3.069
 1515WAT      O18495   2.944   1.139   1.805
 1515WAT     H118496   2.880   1.155   1.874
 1515WAT     H218497   3.029   1.153   1.847
 1516WAT      O18498   0.247   4.305   3.161
 1516WAT     H118499   0.218   4.312   3.252
 1516WAT     H218500   0.272   4.394   3.137
 1517WAT      O18501   0.231   1.462   2.031
 1517WAT     H118502   0.208   1.448   1.939
 1517WAT     H218503   0.296   1.532   2.030
 1518WAT      O18504   0.038   2.053  12.470
 1518WAT     H118505  -0.014   2.001  12.531
 1518WAT     H218506   0.105   1.992  12.439
 1519WAT      O18507   5.671   0.410   4.585
 1519WAT     H118508   5.612   0.358   4.530
 1519WAT     H218509   5.756   0.403   4.542
 1520WAT      O18510   0.354   3.244   2.205
 1520WAT     H118511   0.391   3.309   2.264
 1520WAT     H218512   0.418   3.173   2.205
 1521WAT      O18513   5.692   4.477   9.288
 1521WAT     H118514   5.717   4.449   9.199
 1521WAT     H218515   5.634   4.408   9.319
 1522WAT      O18516   1.411   0.603   8.301
 1522WAT     H118517   1.394   0.576   8.211
 1522WAT     H218518   1.504   0.588   8.314
 1523WAT      O18519   4.108   1.206   0.302
 1523WAT     H118520   4.169   1.264   0.257
 1523WAT     H218521   4.114   1.231   0.394
 1524WAT      O18522   4.688   3.880   1.906
 1524WAT     H118523   4.613   3.840   1.862
 1524WAT     H218524   4.660   3.891   1.996
 1525WAT      O18525   1.931   4.429  10.324
 1525WAT     H118526   1.891   4.470  10.401
 1525WAT     H218527   2.017   4.400  10.354
 1526WAT      O18528   0.428   3.013  10.747
 1526WAT     H118529   0.514   3.042  10.719
 1526WAT     H218530   0.374   3.092  10.748
 1527WAT      O18531   5.647   1.770   9.299
 1527WAT     H118532   5.664   1.717   9.376
 1527WAT     H218533   5.711   1.739   9.234
 1528WAT      O18534   2.363   4.713  10.439
 1528WAT     H118535   2.344   4.623  10.413
 1528WAT     H218536   2.454   4.727  10.412
 1529WAT      O18537   5.401   4.508   2.106
 1529WAT     H118538   5.334   4.470   2.049
 1529WAT     H218539   5.426   4.589   2.062
 1530WAT      O18540   2.110   2.423   9.915
 1530WAT     H118541   2.027   2.379   9.896
 1530WAT     H218542   2.141   2.455   9.831
 1531WAT      O18543   5.234   5.610   2.718
 1531WAT     H118544   5.283   5.666   2.658
 1531WAT     H218545   5.232   5.659   2.800
 1532WAT      O18546   4.666   0.480  10.307
 1532WAT     H118547   4.593   0.493  10.247
 1532WAT     H218548   4.738   0.530  10.269
 1533WAT      O18549   3.549   5.007   4.010
 1533WAT     H118550   3.532   5.035   4.100
 1533WAT     H218551   3.471   4.957   3.985
 1534WAT      O18552   5.261   1.112   0.600
 1534WAT     H118553   5.354   1.090   0.593
 1534WAT     H218554   5.236   1.136   0.511
 1535WAT      O18555   1.687   2.653   9.135
 1535WAT     H118556   1.612   2.706   9.161
 1535WAT     H218557   1.712   2.688   9.049
 1536WAT      O18558   1.090   6.133  11.561
 1536WAT     H118559   1.097   6.221  11.523
 1536WAT     H218560   1.008   6.135  11.609
 1537WAT      O18561   5.739   3.332   1.898
 1537WAT     H118562   5.704   3.304   1.983
 1537WAT     H218563   5.720   3.425   1.894
 1538WAT      O18564   2.995   2.183   8.086
 1538WAT     H118565   2.998   2.094   8.123
 1538WAT     H218566   2.912   2.219   8.118
 1539WAT      O18567   5.126   2.905   9.610
 1539WAT     H118568   5.118   2.981   9.552
 1539WAT     H218569   5.087   2.833   9.560
 1540WAT      O18570   2.900   3.713   9.398
 1540WAT     H118571   2.896   3.757   9.313
 1540WAT     H218572   2.808   3.706   9.425
 1541WAT      O18573   5.864   2.761   9.137
 1541WAT     H118574   5.861   2.766   9.042
 1541WAT     H218575   5.820   2.840   9.167
 1542WAT      O18576   2.575   1.135   0.160
 1542WAT     H118577   2.629   1.100   0.231
 1542WAT     H218578   2.490   1.151   0.200
 1543WAT      O18579   4.319   4.014   2.304
 1543WAT     H118580   4.328   4.046   2.393
 1543WAT     H218581   4.248   4.066   2.266
 1544WAT      O18582   2.812   3.073   4.481
 1544WAT     H118583   2.819   3.131   4.406
 1544WAT     H218584   2.724   3.088   4.514
 1545WAT      O18585   5.611   5.326   8.979
 1545WAT     H118586   5.702   5.299   8.968
 1545WAT     H218587   5.568   5.252   9.020
 1546WAT      O18588   6.030   4.814   0.606
 1546WAT     H118589   5.951   4.764   0.627
 1546WAT     H218590   6.085   4.752   0.558
 1547WAT      O18591   1.130   0.967   9.129
 1547WAT     H118592   1.187   1.011   9.192
 1547WAT     H218593   1.188   0.946   9.055
 1548WAT      O18594   1.023   2.381   1.797
 1548WAT     H118595   1.051   2.290   1.798
 1548WAT     H218596   1.093   2.430   1.840
 1549WAT      O18597   3.307   3.215   3.636
 1549WAT     H118598   3.277   3.169   3.558
 1549WAT     H218599   3.228   3.235   3.685
 1550WAT      O18600   2.712   3.449   8.945
 1550WAT     H118601   2.746   3.445   8.856
 1550WAT     H218602   2.757   3.524   8.985
 1551WAT      O18603   3.075   5.160   0.621
 1551WAT     H118604   3.046   5.116   0.702
 1551WAT     H218605   3.169   5.174   0.634
 1552WAT      O18606   5.081   2.059   9.748
 1552WAT     H118607   5.080   2.023   9.837
 1552WAT     H218608   5.173   2.077   9.730
 1553WAT      O18609   5.893   0.289   1.552
 1553WAT     H118610   5.860   0.276   1.463
 1553WAT     H218611   5.833   0.352   1.591
 1554WAT      O18612   0.635   2.746   3.034
 1554WAT     H118613   0.612   2.788   3.118
 1554WAT     H218614   0.715   2.698   3.053
 1555WAT      O18615   5.377   2.271  10.025
 1555WAT     H118616   5.348   2.346   9.973
 1555WAT     H218617   5.463   2.297  10.058
 1556WAT      O18618   1.821   1.671  10.269
 1556WAT     H118619   1.899   1.623  10.240
 1556WAT     H218620   1.779   1.701  10.188
 1557WAT      O18621   1.048   1.790   9.551
 1557WAT     H118622   1.086   1.774   9.637
 1557WAT     H218623   1.036   1.703   9.513
 1558WAT      O18624   4.153   4.658   0.287
 1558WAT     H118625   4.222   4.697   0.233
 1558WAT     H218626   4.175   4.565   0.290
 1559WAT      O18627   5.047   0.515   4.003
 1559WAT     H118628   5.006   0.429   4.013
 1559WAT     H218629   5.001   0.555   3.928
 1560WAT      O18630   2.992   0.905   9.880
 1560WAT     H118631   2.964   0.858   9.958
 1560WAT     H218632   3.075   0.945   9.904
 1561WAT      O18633   3.346   2.232   2.751
 1561WAT     H118634   3.399   2.298   2.706
 1561WAT     H218635   3.389   2.221   2.835
 1562WAT      O18636   2.885   1.807   9.193
 1562WAT     H118637   2.806   1.768   9.156
 1562WAT     H218638   2.883   1.898   9.162
 1563WAT      O18639   0.178   4.609   1.440
 1563WAT     H118640   0.148   4.686   1.489
 1563WAT     H218641   0.261   4.586   1.481
 1564WAT      O18642   0.296   2.977   1.101
 1564WAT     H118643   0.239   3.038   1.053
 1564WAT     H218644   0.251   2.893   1.096
 1565WAT      O18645   1.511   2.770   5.025
 1565WAT     H118646   1.531   2.682   4.993
 1565WAT     H218647   1.482   2.818   4.947
 1566WAT      O18648   6.176   1.531   9.938
 1566WAT     H118649   6.166   1.462  10.004
 1566WAT     H218650   6.087   1.558   9.918
 1567WAT      O18651   3.010   1.777  10.893
 1567WAT     H118652   2.974   1.732  10.969
 1567WAT     H218653   3.079   1.718  10.861
 1568WAT      O18654   6.101   0.803  10.760
 1568WAT     H118655   6.046   0.726  10.745
 1568WAT     H218656   6.136   0.825  10.674
 1569WAT      O18657   2.376   1.470  10.478
 1569WAT     H118658   2.378   1.375  10.477
 1569WAT     H218659   2.383   1.494  10.570
 1570WAT      O18660   2.693   2.185   9.971
 1570WAT     H118661   2.602   2.157   9.962
 1570WAT     H218662   2.707   2.247   9.900
 1571WAT      O18663   0.894   1.538   1.502
 1571WAT     H118664   0.814   1.504   1.462
 1571WAT     H218665   0.885   1.633   1.495
 1572WAT      O18666   3.943   6.220   1.962
 1572WAT     H118667   3.948   6.153   1.893
 1572WAT     H218668   4.028   6.217   2.005
 1573WAT      O18669   6.273   6.039   0.733
 1573WAT     H118670   6.214   6.041   0.658
 1573WAT     H218671   6.227   6.087   0.802
 1574WAT      O18672   1.169   0.683   8.104
 1574WAT     H118673   1.174   0.777   8.085
 1574WAT     H218674   1.097   0.675   8.166
 1575WAT      O18675   2.001   0.329  10.332
 1575WAT     H118676   2.051   0.409  10.347
 1575WAT     H218677   1.946   0.349  10.257
 1576WAT      O18678   3.383   3.045   7.943
 1576WAT     H118679   3.476   3.046   7.919
 1576WAT     H218680   3.383   3.039   8.039
 1577WAT      O18681   5.262   0.114   9.107
 1577WAT     H118682   5.208   0.035   9.096
 1577WAT     H218683   5.214   0.182   9.059
 1578WAT      O18684   1.945   3.668  12.077
 1578WAT     H118685   1.898   3.670  11.993
 1578WAT     H218686   1.918   3.586  12.118
 1579WAT      O18687   4.477   1.145  10.002
 1579WAT     H118688   4.434   1.221   9.964
 1579WAT     H218689   4.540   1.181  10.064
 1580WAT      O18690   2.928   1.349   0.272
 1580WAT     H118691   2.914   1.331   0.179
 1580WAT     H218692   2.927   1.444   0.279
 1581WAT      O18693   0.274   4.522   2.226
 1581WAT     H118694   0.274   4.618   2.235
 1581WAT     H218695   0.349   4.504   2.169
 1582WAT      O18696   1.125   5.753   8.920
 1582WAT     H118697   1.093   5.708   8.999
 1582WAT     H218698   1.096   5.843   8.931
 1583WAT      O18699   5.442   5.807   8.379
 1583WAT     H118700   5.492   5.876   8.335
 1583WAT     H218701   5.446   5.829   8.472
 1584WAT      O18702   1.478   2.321   1.426
 1584WAT     H118703   1.538   2.279   1.363
 1584WAT     H218704   1.417   2.251   1.450
 1585WAT      O18705   5.226   2.062  10.849
 1585WAT     H118706   5.242   2.033  10.759
 1585WAT     H218707   5.298   2.122  10.868
 1586WAT      O18708   0.532   5.535   9.861
 1586WAT     H118709   0.451   5.584   9.846
 1586WAT     H218710   0.574   5.578   9.935
 1587WAT      O18711   3.356   5.529   0.455
 1587WAT     H118712   3.315   5.612   0.431
 1587WAT     H218713   3.388   5.542   0.544
 1588WAT      O18714   6.098   4.179   1.716
 1588WAT     H118715   6.007   4.159   1.737
 1588WAT     H218716   6.146   4.099   1.738
 1589WAT      O18717   1.782   0.386   2.866
 1589WAT     H118718   1.725   0.445   2.818
 1589WAT     H218719   1.850   0.442   2.903
 1590WAT      O18720   0.682   1.793   7.740
 1590WAT     H118721   0.659   1.838   7.822
 1590WAT     H218722   0.711   1.707   7.768
 1591WAT      O18723   3.540   0.723   1.869
 1591WAT     H118724   3.475   0.664   1.906
 1591WAT     H218725   3.489   0.784   1.815
 1592WAT      O18726   0.120   3.197  12.215
 1592WAT     H118727   0.026   3.198  12.233
 1592WAT     H218728   0.150   3.112  12.246
 1593WAT      O18729   5.170   4.929   0.002
 1593WAT     H118730   5.215   5.013  -0.005
 1593WAT     H218731   5.080   4.952   0.024
 1594WAT      O18732   2.624   5.918   4.107
 1594WAT     H118733   2.718   5.923   4.095
 1594WAT     H218734   2.596   6.008   4.123
 1595WAT      O18735   3.645   4.993   2.075
 1595WAT     H118736   3.676   4.965   1.989
 1595WAT     H218737   3.620   5.085   2.064
 1596WAT      O18738   0.971   2.580  10.207
 1596WAT     H118739   1.066   2.575  10.196
 1596WAT     H218740   0.942   2.634  10.133
 1597WAT      O18741   2.166   0.759  11.802
 1597WAT     H118742   2.175   0.668  11.832
 1597WAT     H218743   2.182   0.754  11.708
 1598WAT      O18744   3.625   3.694   8.270
 1598WAT     H118745   3.564   3.749   8.320
 1598WAT     H218746   3.628   3.736   8.184
 1599WAT      O18747   1.997   5.608   0.594
 1599WAT     H118748   2.085   5.571   0.580
 1599WAT     H218749   1.944   5.533   0.623
 1600WAT      O18750   0.555   3.307   2.996
 1600WAT     H118751   0.624   3.291   3.061
 1600WAT     H218752   0.575   3.393   2.960
 1601WAT      O18753   5.625   1.942  10.826
 1601WAT     H118754   5.621   1.846  10.820
 1601WAT     H218755   5.617   1.960  10.919
 1602WAT      O18756   3.251   4.778   9.353
 1602WAT     H118757   3.287   4.768   9.441
 1602WAT     H218758   3.270   4.696   9.309
 1603WAT      O18759   1.807   6.125  12.330
 1603WAT     H118760   1.740   6.070  12.290
 1603WAT     H218761   1.858   6.066  12.385
 1604WAT      O18762   5.553   6.170   3.054
 1604WAT     H118763   5.561   6.166   3.150
 1604WAT     H218764   5.491   6.241   3.038
 1605WAT      O18765   3.782   3.362   2.517
 1605WAT     H118766   3.852   3.405   2.566
 1605WAT     H218767   3.764   3.422   2.444
 1606WAT      O18768   0.852   4.338   1.075
 1606WAT     H118769   0.877   4.327   1.167
 1606WAT     H218770   0.925   4.387   1.037
 1607WAT      O18771   6.046   5.382   4.354
 1607WAT     H118772   6.101   5.334   4.416
 1607WAT     H218773   6.011   5.455   4.404
 1608WAT      O18774   5.356   2.086  12.129
 1608WAT     H118775   5.335   2.162  12.183
 1608WAT     H218776   5.313   2.104  12.045
 1609WAT      O18777   1.852   5.391   9.329
 1609WAT     H118778   1.898   5.311   9.305
 1609WAT     H218779   1.798   5.366   9.404
 1610WAT      O18780   1.530   0.070   2.778
 1610WAT     H118781   1.601   0.064   2.715
 1610WAT     H218782   1.493  -0.018   2.781
 1611WAT      O18783   4.908   0.100   0.448
 1611WAT     H118784   4.988   0.112   0.397
 1611WAT     H218785   4.884   0.009   0.434
 1612WAT      O18786   5.244   1.944  11.107
 1612WAT     H118787   5.229   1.999  11.029
 1612WAT     H218788   5.211   1.858  11.082
 1613WAT      O18789   5.380   3.518  11.857
 1613WAT     H118790   5.450   3.571  11.895
 1613WAT     H218791   5.417   3.486  11.774
 1614WAT      O18792   0.512   4.369  10.202
 1614WAT     H118793   0.420   4.388  10.183
 1614WAT     H218794   0.513   4.276  10.224
 1615WAT      O18795   2.661   4.681   2.923
 1615WAT     H118796   2.651   4.751   2.859
 1615WAT     H218797   2.577   4.677   2.967
 1616WAT      O18798   1.325   2.132  10.991
 1616WAT     H118799   1.319   2.190  11.067
 1616WAT     H218800   1.322   2.044  11.028
 1617WAT      O18801   5.132   3.178   2.423
 1617WAT     H118802   5.103   3.087   2.421
 1617WAT     H218803   5.051   3.228   2.435
 1618WAT      O18804   0.559   0.030   8.832
 1618WAT     H118805   0.527   0.101   8.777
 1618WAT     H218806   0.525   0.049   8.919
 1619WAT      O18807   1.406   5.092   7.857
 1619WAT     H118808   1.411   5.051   7.944
 1619WAT     H218809   1.441   5.026   7.797
 1620WAT      O18810   3.909   3.405   0.383
 1620WAT     H118811   3.972   3.477   0.393
 1620WAT     H218812   3.860   3.427   0.304
 1621WAT      O18813   5.439   2.238  10.528
 1621WAT     H118814   5.352   2.269  10.502
 1621WAT     H218815   5.498   2.282  10.467
 1622WAT      O18816   4.355   4.498   9.998
 1622WAT     H118817   4.342   4.465  10.087
 1622WAT     H218818   4.299   4.575   9.993
 1623WAT      O18819   2.943   1.075  12.091
 1623WAT     H118820   2.973   0.985  12.097
 1623WAT     H218821   2.996   1.123  12.154
 1624WAT      O18822   1.618   4.011   1.033
 1624WAT     H118823   1.537   4.046   1.069
 1624WAT     H218824   1.678   4.085   1.032
 1625WAT      O18825   0.797   1.159  12.275
 1625WAT     H118826   0.775   1.216  12.201
 1625WAT     H218827   0.741   1.190  12.346
 1626WAT      O18828   3.025   5.186   2.651
 1626WAT     H118829   3.043   5.242   2.726
 1626WAT     H218830   3.019   5.246   2.577
 1627WAT      O18831   2.692   2.610  11.136
 1627WAT     H118832   2.663   2.523  11.163
 1627WAT     H218833   2.780   2.596  11.101
 1628WAT      O18834   0.411   0.413  10.539
 1628WAT     H118835   0.441   0.328  10.570
 1628WAT     H218836   0.479   0.441  10.477
 1629WAT      O18837   5.730   5.461   2.585
 1629WAT     H118838   5.658   5.400   2.568
 1629WAT     H218839   5.728   5.474   2.680
 1630WAT      O18840   2.408   1.908   0.077
 1630WAT     H118841   2.366   1.950   0.002
 1630WAT     H218842   2.481   1.965   0.099
 1631WAT      O18843   3.465   1.515   3.592
 1631WAT     H118844   3.483   1.495   3.684
 1631WAT     H218845   3.437   1.431   3.555
 1632WAT      O18846   1.343   5.817   2.726
 1632WAT     H118847   1.425   5.777   2.754
 1632WAT     H218848   1.346   5.905   2.765
 1633WAT      O18849   4.923   2.023  12.078
 1633WAT     H118850   5.006   2.038  12.122
 1633WAT     H218851   4.882   1.952  12.126
 1634WAT      O18852   2.198   3.520   9.601
 1634WAT     H118853   2.158   3.470   9.672
 1634WAT     H218854   2.273   3.466   9.573
 1635WAT      O18855   4.460   5.861   1.881
 1635WAT     H118856   4.382   5.893   1.926
 1635WAT     H218857   4.533   5.893   1.934
 1636WAT      O18858   4.445   3.303  11.391
 1636WAT     H118859   4.350   3.297  11.380
 1636WAT     H218860   4.463   3.253  11.471
 1637WAT      O18861   2.482   4.758  11.464
 1637WAT     H118862   2.395   4.720  11.455
 1637WAT     H218863   2.529   4.698  11.522
 1638WAT      O18864   2.798   0.719   8.347
 1638WAT     H118865   2.748   0.671   8.281
 1638WAT     H218866   2.740   0.725   8.423
 1639WAT      O18867   4.106   2.394  11.247
 1639WAT     H118868   4.089   2.334  11.175
 1639WAT     H218869   4.188   2.363  11.286
 1640WAT      O18870   1.302   4.600  11.098
 1640WAT     H118871   1.316   4.638  11.185
 1640WAT     H218872   1.207   4.591  11.091
 1641WAT      O18873   0.087   0.358  12.137
 1641WAT     H118874   0.072   0.432  12.195
 1641WAT     H218875   0.081   0.395  12.049
 1642WAT      O18876   4.509   5.609  10.097
 1642WAT     H118877   4.591   5.570  10.128
 1642WAT     H218878   4.527   5.636  10.007
 1643WAT      O18879   3.678   6.032   1.012
 1643WAT     H118880   3.666   5.941   0.986
 1643WAT     H218881   3.638   6.038   1.099
 1644WAT      O18882   2.592   0.902   2.760
 1644WAT     H118883   2.593   0.932   2.851
 1644WAT     H218884   2.684   0.907   2.733
 1645WAT      O18885   4.908   6.102   1.094
 1645WAT     H118886   4.924   6.126   1.003
 1645WAT     H218887   4.814   6.117   1.107
 1646WAT      O18888   3.257   1.616   2.657
 1646WAT     H118889   3.318   1.636   2.586
 1646WAT     H218890   3.222   1.530   2.635
 1647WAT      O18891   0.125   5.354   8.698
 1647WAT     H118892   0.180   5.388   8.627
 1647WAT     H218893   0.049   5.411   8.699
 1648WAT      O18894   2.395   1.032   2.606
 1648WAT     H118895   2.355   1.098   2.663
 1648WAT     H218896   2.461   0.990   2.661
 1649WAT      O18897   6.132   2.884   8.237
 1649WAT     H118898   6.047   2.849   8.265
 1649WAT     H218899   6.151   2.837   8.155
 1650WAT      O18900   4.812   3.344  11.862
 1650WAT     H118901   4.751   3.380  11.927
 1650WAT     H218902   4.842   3.421  11.813
 1651WAT      O18903   6.204   1.500   8.948
 1651WAT     H118904   6.277   1.450   8.912
 1651WAT     H218905   6.126   1.458   8.912
 1652WAT      O18906   4.554   0.677   2.139
 1652WAT     H118907   4.467   0.686   2.178
 1652WAT     H218908   4.540   0.624   2.061
 1653WAT      O18909   5.032   1.101   1.573
 1653WAT     H118910   5.087   1.076   1.648
 1653WAT     H218911   5.046   1.195   1.564
 1654WAT      O18912   1.775   4.256   0.938
 1654WAT     H118913   1.682   4.276   0.947
 1654WAT     H218914   1.812   4.333   0.895
 1655WAT      O18915   4.065   5.807   1.354
 1655WAT     H118916   4.131   5.875   1.369
 1655WAT     H218917   3.985   5.855   1.331
 1656WAT      O18918   0.496   0.223  12.170
 1656WAT     H118919   0.422   0.216  12.230
 1656WAT     H218920   0.471   0.294  12.110
 1657WAT      O18921   1.411   2.107   4.012
 1657WAT     H118922   1.323   2.081   4.038
 1657WAT     H218923   1.403   2.129   3.919
 1658WAT      O18924   5.534   2.214   7.297
 1658WAT     H118925   5.575   2.287   7.251
 1658WAT     H218926   5.464   2.254   7.348
 1659WAT      O18927   5.644   5.859   3.752
 1659WAT     H118928   5.601   5.875   3.668
 1659WAT     H218929   5.708   5.790   3.733
 1660WAT      O18930   5.577   3.001   0.696
 1660WAT     H118931   5.655   2.985   0.750
 1660WAT     H218932   5.555   2.915   0.661
 1661WAT      O18933   5.669   5.482  10.696
 1661WAT     H118934   5.643   5.463  10.606
 1661WAT     H218935   5.607   5.550  10.725
 1662WAT      O18936   5.446   2.054   3.562
 1662WAT     H118937   5.390   2.084   3.634
 1662WAT     H218938   5.519   2.010   3.605
 1663WAT      O18939   1.135   2.418  12.142
 1663WAT     H118940   1.092   2.484  12.089
 1663WAT     H218941   1.149   2.344  12.083
 1664WAT      O18942   0.384   3.207   3.368
 1664WAT     H118943   0.479   3.216   3.368
 1664WAT     H218944   0.354   3.281   3.422
 1665WAT      O18945   0.571   0.473  10.344
 1665WAT     H118946   0.552   0.392  10.297
 1665WAT     H218947   0.558   0.542  10.278
 1666WAT      O18948   4.319   5.255   1.096
 1666WAT     H118949   4.296   5.191   1.164
 1666WAT     H218950   4.287   5.338   1.130
 1667WAT      O18951   5.032   2.546   2.205
 1667WAT     H118952   4.986   2.462   2.212
 1667WAT     H218953   5.097   2.531   2.136
 1668WAT      O18954   4.011   4.782   1.915
 1668WAT     H118955   4.023   4.735   1.998
 1668WAT     H218956   4.055   4.727   1.850
 1669WAT      O18957   2.114   5.851  11.509
 1669WAT     H118958   2.031   5.893  11.487
 1669WAT     H218959   2.123   5.863  11.604
 1670WAT      O18960   0.919   1.050   3.723
 1670WAT     H118961   0.978   1.061   3.797
 1670WAT     H218962   0.873   0.968   3.740
 1671WAT      O18963   1.101   5.753   2.928
 1671WAT     H118964   1.125   5.669   2.890
 1671WAT     H218965   1.185   5.792   2.954
 1672WAT      O18966   3.664   3.746   2.164
 1672WAT     H118967   3.603   3.784   2.101
 1672WAT     H218968   3.746   3.793   2.149
 1673WAT      O18969   5.463   4.768  11.861
 1673WAT     H118970   5.554   4.774  11.832
 1673WAT     H218971   5.414   4.742  11.783
 1674WAT      O18972   6.009   3.996  11.517
 1674WAT     H118973   6.044   3.933  11.579
 1674WAT     H218974   6.086   4.043  11.484
 1675WAT      O18975   5.426   2.149   1.083
 1675WAT     H118976   5.391   2.146   1.172
 1675WAT     H218977   5.415   2.061   1.049
 1676WAT      O18978   2.954   3.083   0.380
 1676WAT     H118979   2.938   3.152   0.444
 1676WAT     H218980   2.978   3.006   0.432
 1677WAT      O18981   0.733   4.857   3.980
 1677WAT     H118982   0.792   4.786   4.007
 1677WAT     H218983   0.736   4.855   3.885
 1678WAT      O18984   1.243   4.251  10.927
 1678WAT     H118985   1.192   4.286  10.999
 1678WAT     H218986   1.191   4.178  10.893
 1679WAT      O18987   0.453   0.797   4.827
 1679WAT     H118988   0.451   0.788   4.922
 1679WAT     H218989   0.387   0.864   4.808
 1680WAT      O18990   0.347   4.507   3.042
 1680WAT     H118991   0.350   4.603   3.047
 1680WAT     H218992   0.394   4.486   2.961
 1681WAT      O18993   4.915   3.310   2.096
 1681WAT     H118994   4.889   3.335   2.184
 1681WAT     H218995   4.949   3.221   2.104
 1682WAT      O18996   2.083   4.389   9.278
 1682WAT     H118997   2.161   4.334   9.285
 1682WAT     H218998   2.020   4.336   9.229
 1683WAT      O18999   5.442   2.830  10.176
 1683WAT     H119000   5.428   2.824  10.082
 1683WAT     H219001   5.501   2.757  10.197
 1684WAT      O19002   0.773   4.781  10.716
 1684WAT     H119003   0.819   4.698  10.706
 1684WAT     H219004   0.698   4.775  10.657
 1685WAT      O19005   6.214   2.090   0.342
 1685WAT     H119006   6.243   2.049   0.260
 1685WAT     H219007   6.138   2.142   0.317
 1686WAT      O19008   3.010   2.210  11.296
 1686WAT     H119009   3.038   2.132  11.249
 1686WAT     H219010   2.964   2.263  11.231
 1687WAT      O19011   1.671   4.927   8.097
 1687WAT     H119012   1.578   4.949   8.103
 1687WAT     H219013   1.673   4.831   8.097
 1688WAT      O19014   0.062   1.808  10.943
 1688WAT     H119015  -0.001   1.842  10.879
 1688WAT     H219016   0.147   1.824  10.902
 1689WAT      O19017   4.236   4.395  11.779
 1689WAT     H119018   4.278   4.338  11.844
 1689WAT     H219019   4.151   4.417  11.817
 1690WAT      O19020   0.559   0.495  11.315
 1690WAT     H119021   0.497   0.519  11.247
 1690WAT     H219022   0.568   0.400  11.306
 1691WAT      O19023   5.486   5.228  11.687
 1691WAT     H119024   5.449   5.167  11.623
 1691WAT     H219025   5.484   5.313  11.644
 1692WAT      O19026   6.177   0.943   1.140
 1692WAT     H119027   6.201   0.947   1.047
 1692WAT     H219028   6.082   0.953   1.141
 1693WAT      O19029   4.665   1.875   4.043
 1693WAT     H119030   4.745   1.823   4.043
 1693WAT     H219031   4.636   1.873   4.134
 1694WAT      O19032   5.265   3.986   0.609
 1694WAT     H119033   5.186   3.945   0.643
 1694WAT     H219034   5.235   4.066   0.567
 1695WAT      O19035   5.145   4.795  11.998
 1695WAT     H119036   5.193   4.869  12.033
 1695WAT     H219037   5.189   4.773  11.916
 1696WAT      O19038   5.905   2.747  11.650
 1696WAT     H119039   5.897   2.842  11.645
 1696WAT     H219040   5.866   2.715  11.569
 1697WAT      O19041   0.040   0.617   9.979
 1697WAT     H119042   0.131   0.587   9.977
 1697WAT     H219043   0.001   0.576   9.902
 1698WAT      O19044   1.910   2.964  11.914
 1698WAT     H119045   1.833   2.993  11.864
 1698WAT     H219046   1.901   2.868  11.917
 1699WAT      O19047   1.292   1.593   9.311
 1699WAT     H119048   1.302   1.499   9.323
 1699WAT     H219049   1.319   1.631   9.395
 1700WAT      O19050   2.884   6.018  11.169
 1700WAT     H119051   2.848   6.106  11.162
 1700WAT     H219052   2.814   5.966  11.207
 1701WAT      O19053   2.360   5.790   8.614
 1701WAT     H119054   2.425   5.844   8.660
 1701WAT     H219055   2.341   5.838   8.534
 1702WAT      O19056  -0.020   0.110   2.054
 1702WAT     H119057   0.034   0.085   1.979
 1702WAT     H219058   0.038   0.099   2.130
 1703WAT      O19059   3.869   1.906   2.355
 1703WAT     H119060   3.806   1.857   2.407
 1703WAT     H219061   3.915   1.961   2.419
 1704WAT      O19062   0.834   3.070   4.966
 1704WAT     H119063   0.806   2.995   4.913
 1704WAT     H219064   0.756   3.125   4.973
 1705WAT      O19065   3.545   3.411  11.098
 1705WAT     H119066   3.630   3.425  11.056
 1705WAT     H219067   3.514   3.328  11.061
 1706WAT      O19068   4.279   3.792   2.579
 1706WAT     H119069   4.210   3.777   2.515
 1706WAT     H219070   4.286   3.709   2.627
 1707WAT      O19071   5.701   2.193   1.035
 1707WAT     H119072   5.691   2.213   0.941
 1707WAT     H219073   5.616   2.159   1.061
 1708WAT      O19074   5.376   0.032   0.502
 1708WAT     H119075   5.470   0.046   0.497
 1708WAT     H219076   5.338   0.116   0.475
 1709WAT      O19077   3.460   1.496   9.405
 1709WAT     H119078   3.441   1.420   9.461
 1709WAT     H219079   3.460   1.570   9.464
 1710WAT      O19080   1.538   2.353  11.368
 1710WAT     H119081   1.611   2.297  11.393
 1710WAT     H219082   1.578   2.438  11.349
 1711WAT      O19083   0.049   1.483   4.205
 1711WAT     H119084   0.008   1.408   4.249
 1711WAT     H219085   0.116   1.444   4.148
 1712WAT      O19086   3.995   4.047   1.767
 1712WAT     H119087   3.909   4.004   1.766
 1712WAT     H219088   4.040   4.009   1.691
 1713WAT      O19089   2.859   2.976  10.716
 1713WAT     H119090   2.885   3.038  10.648
 1713WAT     H219091   2.764   2.974  10.712
 1714WAT      O19092   6.196   3.444  10.265
 1714WAT     H119093   6.115   3.456  10.314
 1714WAT     H219094   6.186   3.498  10.188
 1715WAT      O19095   2.138   1.123   1.249
 1715WAT     H119096   2.098   1.037   1.237
 1715WAT     H219097   2.068   1.176   1.288
 1716WAT      O19098   4.823   1.994   0.697
 1716WAT     H119099   4.813   1.939   0.619
 1716WAT     H219100   4.839   1.933   0.768
 1717WAT      O19101   1.258   3.631  10.161
 1717WAT     H119102   1.277   3.724  10.153
 1717WAT     H219103   1.165   3.627  10.183
 1718WAT      O19104   5.731   3.687   8.315
 1718WAT     H119105   5.798   3.743   8.352
 1718WAT     H219106   5.667   3.675   8.386
 1719WAT      O19107   1.247   5.666  10.428
 1719WAT     H119108   1.285   5.651  10.342
 1719WAT     H219109   1.323   5.684  10.484
 1720WAT      O19110   3.397   1.561  11.271
 1720WAT     H119111   3.354   1.616  11.205
 1720WAT     H219112   3.352   1.582  11.352
 1721WAT      O19113   2.601   0.392   4.453
 1721WAT     H119114   2.521   0.388   4.506
 1721WAT     H219115   2.668   0.423   4.513
 1722WAT      O19116   5.972   4.378   9.460
 1722WAT     H119117   6.062   4.348   9.452
 1722WAT     H219118   5.919   4.299   9.448
 1723WAT      O19119   2.440   2.243   9.226
 1723WAT     H119120   2.439   2.223   9.133
 1723WAT     H219121   2.420   2.159   9.269
 1724WAT      O19122   5.854   5.163   2.725
 1724WAT     H119123   5.862   5.209   2.641
 1724WAT     H219124   5.759   5.151   2.737
 1725WAT      O19125   3.883   0.991   1.851
 1725WAT     H119126   3.971   0.963   1.824
 1725WAT     H219127   3.842   0.911   1.885
 1726WAT      O19128   0.629   4.678   2.471
 1726WAT     H119129   0.558   4.615   2.483
 1726WAT     H219130   0.681   4.672   2.551
 1727WAT      O19131   5.692   0.138   2.813
 1727WAT     H119132   5.757   0.080   2.854
 1727WAT     H219133   5.615   0.132   2.870
 1728WAT      O19134   5.606   3.269   9.934
 1728WAT     H119135   5.616   3.179   9.964
 1728WAT     H219136   5.628   3.323  10.010
 1729WAT      O19137   2.497   5.765   9.961
 1729WAT     H119138   2.534   5.849   9.934
 1729WAT     H219139   2.572   5.707   9.972
 1730WAT      O19140   5.645   3.399   9.707
 1730WAT     H119141   5.571   3.460   9.706
 1730WAT     H219142   5.627   3.342   9.782
 1731WAT      O19143   0.160   0.095   3.423
 1731WAT     H119144   0.088   0.142   3.466
 1731WAT     H219145   0.238   0.123   3.470
 1732WAT      O19146   3.832   5.595  10.808
 1732WAT     H119147   3.888   5.545  10.749
 1732WAT     H219148   3.747   5.598  10.763
 1733WAT      O19149   5.546   5.237   2.560
 1733WAT     H119150   5.558   5.143   2.544
 1733WAT     H219151   5.517   5.242   2.651
 1734WAT      O19152   1.864   3.703   2.919
 1734WAT     H119153   1.840   3.765   2.989
 1734WAT     H219154   1.956   3.682   2.936
 1735WAT      O19155   5.609   4.735  10.081
 1735WAT     H119156   5.639   4.644  10.081
 1735WAT     H219157   5.571   4.749   9.994
 1736WAT      O19158   3.088   5.308   8.813
 1736WAT     H119159   3.174   5.319   8.772
 1736WAT     H219160   3.095   5.225   8.860
 1737WAT      O19161   6.082   3.026   1.195
 1737WAT     H119162   6.049   3.115   1.181
 1737WAT     H219163   6.105   3.024   1.288
 1738WAT      O19164   1.823   5.235  10.039
 1738WAT     H119165   1.772   5.313  10.063
 1738WAT     H219166   1.913   5.259  10.059
 1739WAT      O19167   0.916   2.319   2.406
 1739WAT     H119168   0.823   2.299   2.400
 1739WAT     H219169   0.923   2.380   2.480
 1740WAT      O19170   1.232   2.779  10.422
 1740WAT     H119171   1.145   2.772  10.382
 1740WAT     H219172   1.234   2.708  10.487
 1741WAT      O19173   0.010   2.943   9.908
 1741WAT     H119174   0.052   2.888   9.841
 1741WAT     H219175  -0.022   3.019   9.860
 1742WAT      O19176   4.935   2.449  10.390
 1742WAT     H119177   4.968   2.537  10.407
 1742WAT     H219178   4.846   2.462  10.357
 1743WAT      O19179   4.571   5.125   9.038
 1743WAT     H119180   4.665   5.110   9.024
 1743WAT     H219181   4.540   5.046   9.082
 1744WAT      O19182   2.999   4.493  10.337
 1744WAT     H119183   3.064   4.537  10.283
 1744WAT     H219184   3.042   4.412  10.365
 1745WAT      O19185   0.365   4.091   4.772
 1745WAT     H119186   0.388   4.134   4.854
 1745WAT     H219187   0.414   4.139   4.705
 1746WAT      O19188   6.039   4.806   1.447
 1746WAT     H119189   5.989   4.744   1.393
 1746WAT     H219190   6.102   4.845   1.386
 1747WAT      O19191   3.576   4.094   9.214
 1747WAT     H119192   3.497   4.041   9.209
 1747WAT     H219193   3.646   4.030   9.228
 1748WAT      O19194   2.801   1.360   3.809
 1748WAT     H119195   2.775   1.440   3.763
 1748WAT     H219196   2.769   1.373   3.898
 1749WAT      O19197   2.538   0.171   0.948
 1749WAT     H119198   2.584   0.218   0.879
 1749WAT     H219199   2.467   0.230   0.974
 1750WAT      O19200   0.967   3.323   7.806
 1750WAT     H119201   1.015   3.392   7.760
 1750WAT     H219202   0.988   3.336   7.898
 1751WAT      O19203   4.538   1.424   8.557
 1751WAT     H119204   4.511   1.337   8.584
 1751WAT     H219205   4.457   1.470   8.538
 1752WAT      O19206   1.702   5.354   8.650
 1752WAT     H119207   1.697   5.267   8.610
 1752WAT     H219208   1.750   5.341   8.731
 1753WAT      O19209   1.492   3.793  11.194
 1753WAT     H119210   1.463   3.871  11.242
 1753WAT     H219211   1.566   3.760  11.245
 1754WAT      O19212   4.371   5.363  10.154
 1754WAT     H119213   4.439   5.348  10.089
 1754WAT     H219214   4.375   5.457  10.172
 1755WAT      O19215   3.619   5.229  12.257
 1755WAT     H119216   3.707   5.258  12.234
 1755WAT     H219217   3.631   5.162  12.324
 1756WAT      O19218   1.817   2.907   3.433
 1756WAT     H119219   1.913   2.905   3.441
 1756WAT     H219220   1.797   2.997   3.408
 1757WAT      O19221   4.057   3.213   8.729
 1757WAT     H119222   4.044   3.167   8.646
 1757WAT     H219223   4.013   3.297   8.717
 1758WAT      O19224   6.144   6.173   3.250
 1758WAT     H119225   6.144   6.150   3.343
 1758WAT     H219226   6.123   6.266   3.248
 1759WAT      O19227   0.039   2.371  11.696
 1759WAT     H119228   0.077   2.319  11.625
 1759WAT     H219229   0.106   2.371  11.765
 1760WAT      O19230   3.320   3.959   9.105
 1760WAT     H119231   3.290   3.868   9.110
 1760WAT     H219232   3.310   3.982   9.012
 1761WAT      O19233   1.614   3.342   9.676
 1761WAT     H119234   1.633   3.327   9.769
 1761WAT     H219235   1.581   3.257   9.645
 1762WAT      O19236   3.859   0.289   0.302
 1762WAT     H119237   3.825   0.218   0.357
 1762WAT     H219238   3.896   0.352   0.363
 1763WAT      O19239   0.451   3.666  10.824
 1763WAT     H119240   0.373   3.628  10.783
 1763WAT     H219241   0.524   3.628  10.776
 1764WAT      O19242   0.071   5.573   2.994
 1764WAT     H119243  -0.005   5.630   3.005
 1764WAT     H219244   0.115   5.575   3.079
 1765WAT      O19245   0.085   2.513   8.874
 1765WAT     H119246  -0.007   2.528   8.894
 1765WAT     H219247   0.132   2.551   8.948
 1766WAT      O19248   2.386   4.742   3.277
 1766WAT     H119249   2.392   4.648   3.289
 1766WAT     H219250   2.312   4.768   3.332
 1767WAT      O19251   5.956   0.178  11.814
 1767WAT     H119252   5.864   0.205  11.809
 1767WAT     H219253   5.971   0.162  11.908
 1768WAT      O19254   6.211   4.084  12.263
 1768WAT     H119255   6.164   4.040  12.334
 1768WAT     H219256   6.304   4.072  12.285
 1769WAT      O19257   1.220   2.812   7.918
 1769WAT     H119258   1.217   2.885   7.979
 1769WAT     H219259   1.144   2.825   7.861
 1770WAT      O19260   2.665   6.038   0.215
 1770WAT     H119261   2.625   6.117   0.179
 1770WAT     H219262   2.759   6.054   0.210
 1771WAT      O19263   5.855   2.756   7.977
 1771WAT     H119264   5.943   2.739   8.011
 1771WAT     H219265   5.855   2.716   7.890
 1772WAT      O19266   1.188   5.356  11.633
 1772WAT     H119267   1.161   5.441  11.667
 1772WAT     H219268   1.272   5.372  11.590
 1773WAT      O19269   2.739   1.047   0.366
 1773WAT     H119270   2.791   1.010   0.295
 1773WAT     H219271   2.802   1.100   0.416
 1774WAT      O19272   0.560   2.477  12.344
 1774WAT     H119273   0.496   2.526  12.292
 1774WAT     H219274   0.509   2.411  12.390
 1775WAT      O19275   5.472   4.910  11.319
 1775WAT     H119276   5.406   4.963  11.364
 1775WAT     H219277   5.555   4.938  11.356
 1776WAT      O19278   1.839   1.077  11.485
 1776WAT     H119279   1.889   1.157  11.469
 1776WAT     H219280   1.873   1.014  11.422
 1777WAT      O19281   5.911   2.857  10.249
 1777WAT     H119282   5.941   2.890  10.164
 1777WAT     H219283   5.986   2.869  10.307
 1778WAT      O19284   4.531   3.541   1.638
 1778WAT     H119285   4.580   3.538   1.555
 1778WAT     H219286   4.528   3.450   1.667
 1779WAT      O19287   5.104   5.974   8.573
 1779WAT     H119288   5.012   5.999   8.565
 1779WAT     H219289   5.115   5.904   8.509
 1780WAT      O19290   2.182   5.888   8.852
 1780WAT     H119291   2.267   5.845   8.847
 1780WAT     H219292   2.191   5.965   8.796
 1781WAT      O19293   1.937   5.059   2.409
 1781WAT     H119294   1.923   4.967   2.429
 1781WAT     H219295   1.911   5.068   2.317
 1782WAT      O19296   2.786   0.984   8.782
 1782WAT     H119297   2.764   0.958   8.871
 1782WAT     H219298   2.778   1.079   8.782
 1783WAT      O19299   4.856   3.099   1.140
 1783WAT     H119300   4.786   3.067   1.082
 1783WAT     H219301   4.861   3.033   1.209
 1784WAT      O19302   3.617   1.804   2.769
 1784WAT     H119303   3.644   1.792   2.678
 1784WAT     H219304   3.522   1.797   2.767
 1785WAT      O19305   2.143   3.936   7.955
 1785WAT     H119306   2.084   3.983   8.014
 1785WAT     H219307   2.214   3.998   7.937
 1786WAT      O19308   3.759   2.174   3.921
 1786WAT     H119309   3.760   2.218   4.007
 1786WAT     H219310   3.688   2.111   3.928
 1787WAT      O19311   0.272   4.786   2.233
 1787WAT     H119312   0.228   4.869   2.214
 1787WAT     H219313   0.235   4.759   2.317
 1788WAT      O19314   0.773   1.257  12.627
 1788WAT     H119315   0.730   1.262  12.712
 1788WAT     H219316   0.815   1.171  12.627
 1789WAT      O19317   3.133   1.903   4.686
 1789WAT     H119318   3.057   1.889   4.629
 1789WAT     H219319   3.095   1.922   4.772
 1790WAT      O19320   2.769   1.868  11.773
 1790WAT     H119321   2.700   1.924  11.739
 1790WAT     H219322   2.723   1.802  11.825
 1791WAT      O19323   4.259   1.607   8.733
 1791WAT     H119324   4.193   1.659   8.779
 1791WAT     H219325   4.224   1.518   8.732
 1792WAT      O19326   3.584   3.675  11.303
 1792WAT     H119327   3.549   3.604  11.249
 1792WAT     H219328   3.678   3.675  11.285
 1793WAT      O19329   3.340   5.525   3.033
 1793WAT     H119330   3.303   5.437   3.035
 1793WAT     H219331   3.292   5.573   3.100
 1794WAT      O19332   2.839   3.012   3.899
 1794WAT     H119333   2.792   2.987   3.978
 1794WAT     H219334   2.818   2.944   3.836
 1795WAT      O19335   1.689   2.241  12.279
 1795WAT     H119336   1.758   2.175  12.270
 1795WAT     H219337   1.633   2.208  12.348
 1796WAT      O19338   0.816   3.115   0.232
 1796WAT     H119339   0.901   3.157   0.222
 1796WAT     H219340   0.753   3.187   0.229
 1797WAT      O19341   4.965   4.015   2.092
 1797WAT     H119342   4.907   4.081   2.131
 1797WAT     H219343   4.914   3.934   2.095
 1798WAT      O19344   4.246   1.390  11.717
 1798WAT     H119345   4.327   1.439  11.729
 1798WAT     H219346   4.233   1.388  11.622
 1799WAT      O19347   1.981   0.829   8.202
 1799WAT     H119348   1.982   0.800   8.111
 1799WAT     H219349   1.893   0.809   8.233
 1800WAT      O19350   1.920   2.861   2.118
 1800WAT     H119351   1.976   2.784   2.123
 1800WAT     H219352   1.966   2.927   2.171
 1801WAT      O19353   2.380   0.546   3.933
 1801WAT     H119354   2.294   0.582   3.954
 1801WAT     H219355   2.368   0.451   3.931
 1802WAT      O19356   3.821   0.721   2.433
 1802WAT     H119357   3.784   0.633   2.445
 1802WAT     H219358   3.891   0.725   2.498
 1803WAT      O19359   2.964   1.381   3.285
 1803WAT     H119360   2.968   1.414   3.195
 1803WAT     H219361   2.955   1.459   3.339
 1804WAT      O19362   3.008   2.822   9.266
 1804WAT     H119363   3.096   2.832   9.229
 1804WAT     H219364   3.005   2.885   9.338
 1805WAT      O19365   2.742   3.686  11.473
 1805WAT     H119366   2.748   3.771  11.428
 1805WAT     H219367   2.781   3.701  11.559
 1806WAT      O19368   3.826   3.067   1.865
 1806WAT     H119369   3.864   2.980   1.850
 1806WAT     H219370   3.732   3.054   1.854
 1807WAT      O19371   1.882   5.647   1.770
 1807WAT     H119372   1.961   5.607   1.734
 1807WAT     H219373   1.820   5.574   1.779
 1808WAT      O19374   2.912   5.668  11.110
 1808WAT     H119375   2.844   5.733  11.092
 1808WAT     H219376   2.910   5.658  11.205
 1809WAT      O19377   1.390   6.230   0.586
 1809WAT     H119378   1.440   6.262   0.662
 1809WAT     H219379   1.401   6.135   0.588
 1810WAT      O19380   2.659   2.250  11.393
 1810WAT     H119381   2.743   2.289  11.368
 1810WAT     H219382   2.602   2.325  11.411
 1811WAT      O19383   2.714   5.142   9.769
 1811WAT     H119384   2.641   5.152   9.830
 1811WAT     H219385   2.675   5.109   9.689
 1812WAT      O19386   3.928   0.867   1.302
 1812WAT     H119387   3.847   0.909   1.273
 1812WAT     H219388   3.907   0.773   1.302
 1813WAT      O19389   2.808   4.982   4.866
 1813WAT     H119390   2.727   5.004   4.910
 1813WAT     H219391   2.788   4.902   4.816
 1814WAT      O19392   3.972   3.611   3.337
 1814WAT     H119393   3.946   3.678   3.400
 1814WAT     H219394   4.067   3.606   3.345
 1815WAT      O19395   5.889   0.587   8.047
 1815WAT     H119396   5.853   0.509   8.005
 1815WAT     H219397   5.948   0.624   7.982
 1816WAT      O19398   0.471   4.080  12.478
 1816WAT     H119399   0.457   4.014  12.546
 1816WAT     H219400   0.501   4.031  12.402
 1817WAT      O19401   0.265   5.687   8.295
 1817WAT     H119402   0.200   5.639   8.347
 1817WAT     H219403   0.232   5.683   8.206
 1818WAT      O19404   5.964   4.140   4.272
 1818WAT     H119405   5.993   4.223   4.235
 1818WAT     H219406   5.947   4.084   4.197
 1819WAT      O19407   2.103   5.321  11.640
 1819WAT     H119408   2.101   5.393  11.578
 1819WAT     H219409   2.191   5.284  11.632
 1820WAT      O19410   3.082   5.277   3.911
 1820WAT     H119411   3.056   5.205   3.970
 1820WAT     H219412   3.009   5.338   3.915
 1821WAT      O19413   2.874   4.577   1.198
 1821WAT     H119414   2.962   4.582   1.237
 1821WAT     H219415   2.835   4.499   1.238
 1822WAT      O19416   3.230   5.525   0.201
 1822WAT     H119417   3.265   5.514   0.289
 1822WAT     H219418   3.282   5.596   0.164
 1823WAT      O19419   0.895   3.088   8.582
 1823WAT     H119420   0.810   3.052   8.609
 1823WAT     H219421   0.901   3.067   8.489
 1824WAT      O19422   4.579   0.277   2.646
 1824WAT     H119423   4.608   0.190   2.672
 1824WAT     H219424   4.660   0.325   2.629
 1825WAT      O19425   1.307   1.781  10.077
 1825WAT     H119426   1.381   1.841  10.071
 1825WAT     H219427   1.342   1.704  10.122
 1826WAT      O19428   0.419   1.039   8.145
 1826WAT     H119429   0.414   1.088   8.063
 1826WAT     H219430   0.507   1.000   8.144
 1827WAT      O19431   0.321   0.762  12.281
 1827WAT     H119432   0.320   0.711  12.200
 1827WAT     H219433   0.409   0.749  12.317
 1828WAT      O19434   4.936   5.676   2.329
 1828WAT     H119435   4.886   5.754   2.354
 1828WAT     H219436   4.974   5.644   2.410
 1829WAT      O19437   5.524   2.408   2.606
 1829WAT     H119438   5.598   2.453   2.566
 1829WAT     H219439   5.497   2.343   2.541
 1830WAT      O19440   4.802   3.269   9.175
 1830WAT     H119441   4.719   3.292   9.215
 1830WAT     H219442   4.862   3.339   9.201
 1831WAT      O19443   0.262   2.076  11.731
 1831WAT     H119444   0.184   2.022  11.745
 1831WAT     H219445   0.331   2.013  11.709
 1832WAT      O19446   5.914   3.775  10.809
 1832WAT     H119447   5.968   3.852  10.792
 1832WAT     H219448   5.835   3.810  10.849
 1833WAT      O19449   2.387   2.118   2.867
 1833WAT     H119450   2.314   2.167   2.905
 1833WAT     H219451   2.348   2.065   2.798
 1834WAT      O19452   5.734   2.259  11.739
 1834WAT     H119453   5.738   2.270  11.644
 1834WAT     H219454   5.824   2.271  11.769
 1835WAT      O19455   0.078   0.885   8.491
 1835WAT     H119456   0.118   0.798   8.488
 1835WAT     H219457   0.119   0.932   8.418
 1836WAT      O19458   5.410   5.550   9.745
 1836WAT     H119459   5.429   5.599   9.825
 1836WAT     H219460   5.319   5.573   9.724
 1837WAT      O19461   1.162   4.754   2.531
 1837WAT     H119462   1.183   4.671   2.489
 1837WAT     H219463   1.238   4.773   2.586
 1838WAT      O19464   3.642   5.529   2.569
 1838WAT     H119465   3.657   5.599   2.633
 1838WAT     H219466   3.627   5.451   2.622
 1839WAT      O19467   2.533   4.273  10.840
 1839WAT     H119468   2.577   4.343  10.791
 1839WAT     H219469   2.604   4.228  10.886
 1840WAT      O19470   4.609   6.072   8.279
 1840WAT     H119471   4.524   6.045   8.245
 1840WAT     H219472   4.629   6.153   8.232
 1841WAT      O19473   2.386   1.388  11.694
 1841WAT     H119474   2.314   1.423  11.642
 1841WAT     H219475   2.378   1.432  11.779
 1842WAT      O19476   2.348   2.277  11.580
 1842WAT     H119477   2.422   2.253  11.636
 1842WAT     H219478   2.293   2.199  11.578
 1843WAT      O19479   0.803   3.755   1.231
 1843WAT     H119480   0.772   3.782   1.144
 1843WAT     H219481   0.827   3.663   1.220
 1844WAT      O19482   5.286   5.992   3.483
 1844WAT     H119483   5.339   6.014   3.560
 1844WAT     H219484   5.267   5.899   3.493
 1845WAT      O19485   4.786   5.784   3.280
 1845WAT     H119486   4.774   5.879   3.287
 1845WAT     H219487   4.697   5.750   3.269
 1846WAT      O19488   2.959   2.177   2.176
 1846WAT     H119489   2.888   2.115   2.159
 1846WAT     H219490   2.997   2.147   2.259
 1847WAT      O19491   4.642   1.274  10.209
 1847WAT     H119492   4.591   1.352  10.230
 1847WAT     H219493   4.640   1.221  10.289
 1848WAT      O19494   3.969   5.088  12.552
 1848WAT     H119495   3.900   5.096  12.486
 1848WAT     H219496   4.037   5.035  12.509
 1849WAT      O19497   3.600   0.370   9.385
 1849WAT     H119498   3.544   0.360   9.309
 1849WAT     H219499   3.682   0.406   9.351
 1850WAT      O19500   3.636   1.732   9.128
 1850WAT     H119501   3.629   1.735   9.223
 1850WAT     H219502   3.699   1.801   9.105
 1851WAT      O19503   3.475   1.703   8.741
 1851WAT     H119504   3.387   1.666   8.732
 1851WAT     H219505   3.481   1.726   8.834
 1852WAT      O19506   1.165   2.196   4.058
 1852WAT     H119507   1.178   2.265   4.124
 1852WAT     H219508   1.129   2.242   3.983
 1853WAT      O19509   5.123   1.748   0.800
 1853WAT     H119510   5.124   1.760   0.705
 1853WAT     H219511   5.031   1.764   0.824
 1854WAT      O19512   3.748   2.904   1.186
 1854WAT     H119513   3.666   2.872   1.148
 1854WAT     H219514   3.801   2.825   1.198
 1855WAT      O19515   0.221   1.666   0.719
 1855WAT     H119516   0.176   1.583   0.737
 1855WAT     H219517   0.160   1.733   0.749
 1856WAT      O19518   1.963   5.873   5.206
 1856WAT     H119519   2.040   5.924   5.229
 1856WAT     H219520   1.997   5.791   5.172
 1857WAT      O19521   3.503   5.048  10.951
 1857WAT     H119522   3.429   5.092  10.994
 1857WAT     H219523   3.519   4.971  11.005
 1858WAT      O19524   1.066   4.994  12.352
 1858WAT     H119525   1.019   5.022  12.430
 1858WAT     H219526   1.143   4.949  12.386
 1859WAT      O19527   1.151   4.540   8.128
 1859WAT     H119528   1.193   4.505   8.050
 1859WAT     H219529   1.198   4.622   8.146
 1860WAT      O19530   0.616   3.087   1.755
 1860WAT     H119531   0.634   3.050   1.842
 1860WAT     H219532   0.614   3.011   1.697
 1861WAT      O19533   3.515   0.501   0.195
 1861WAT     H119534   3.459   0.509   0.273
 1861WAT     H219535   3.476   0.559   0.131
 1862WAT      O19536   0.540   2.648   2.797
 1862WAT     H119537   0.565   2.677   2.885
 1862WAT     H219538   0.445   2.644   2.799
 1863WAT      O19539   4.264   1.611  12.330
 1863WAT     H119540   4.275   1.526  12.287
 1863WAT     H219541   4.253   1.590  12.423
 1864WAT      O19542   5.040   0.402   2.628
 1864WAT     H119543   5.010   0.381   2.540
 1864WAT     H219544   5.023   0.323   2.679
 1865WAT      O19545   6.206   4.291   3.685
 1865WAT     H119546   6.121   4.294   3.729
 1865WAT     H219547   6.249   4.372   3.711
 1866WAT      O19548   0.759   5.084   0.843
 1866WAT     H119549   0.835   5.026   0.858
 1866WAT     H219550   0.694   5.054   0.906
 1867WAT      O19551   2.560   0.529   9.304
 1867WAT     H119552   2.651   0.530   9.333
 1867WAT     H219553   2.512   0.576   9.371
 1868WAT      O19554   4.573   4.818  10.009
 1868WAT     H119555   4.617   4.858  10.084
 1868WAT     H219556   4.512   4.886   9.979
 1869WAT      O19557   3.517   6.127  11.794
 1869WAT     H119558   3.609   6.135  11.820
 1869WAT     H219559   3.480   6.066  11.858
 1870WAT      O19560   4.113   1.028   1.401
 1870WAT     H119561   4.060   0.961   1.358
 1870WAT     H219562   4.055   1.066   1.467
 1871WAT      O19563   2.381   6.006   7.717
 1871WAT     H119564   2.384   5.958   7.634
 1871WAT     H219565   2.390   5.938   7.784
 1872WAT      O19566   4.059   4.159  10.261
 1872WAT     H119567   4.133   4.197  10.213
 1872WAT     H219568   3.994   4.141  10.194
 1873WAT      O19569   3.821   4.222   7.671
 1873WAT     H119570   3.732   4.246   7.649
 1873WAT     H219571   3.847   4.285   7.738
 1874WAT      O19572   3.808   3.172   1.184
 1874WAT     H119573   3.902   3.165   1.165
 1874WAT     H219574   3.775   3.083   1.176
 1875WAT      O19575   5.300   5.144   9.301
 1875WAT     H119576   5.330   5.156   9.391
 1875WAT     H219577   5.227   5.205   9.292
 1876WAT      O19578   0.563   5.256   3.794
 1876WAT     H119579   0.525   5.189   3.737
 1876WAT     H219580   0.650   5.223   3.816
 1877WAT      O19581   0.476   3.899   3.258
 1877WAT     H119582   0.571   3.890   3.265
 1877WAT     H219583   0.463   3.942   3.173
 1878WAT      O19584   5.765   0.228   1.873
 1878WAT     H119585   5.704   0.167   1.914
 1878WAT     H219586   5.831   0.245   1.941
 1879WAT      O19587   4.467   3.767   1.761
 1879WAT     H119588   4.391   3.741   1.813
 1879WAT     H219589   4.501   3.684   1.726
 1880WAT      O19590   1.360   5.572  11.819
 1880WAT     H119591   1.281   5.590  11.769
 1880WAT     H219592   1.328   5.544  11.905
 1881WAT      O19593   2.121   0.134  10.468
 1881WAT     H119594   2.129   0.070  10.398
 1881WAT     H219595   2.095   0.215  10.424
 1882WAT      O19596   5.180   4.408   8.562
 1882WAT     H119597   5.271   4.386   8.542
 1882WAT     H219598   5.164   4.491   8.517
 1883WAT      O19599   4.008   0.356  12.516
 1883WAT     H119600   3.989   0.311  12.434
 1883WAT     H219601   4.045   0.440  12.489
 1884WAT      O19602   2.944   0.508   7.767
 1884WAT     H119603   2.865   0.562   7.772
 1884WAT     H219604   2.952   0.469   7.854
 1885WAT      O19605   0.921   4.824  12.077
 1885WAT     H119606   0.875   4.795  12.155
 1885WAT     H219607   1.006   4.854  12.108
 1886WAT      O19608   2.168   3.383   1.290
 1886WAT     H119609   2.211   3.298   1.278
 1886WAT     H219610   2.101   3.385   1.221
 1887WAT      O19611   2.717   3.823   3.684
 1887WAT     H119612   2.692   3.876   3.759
 1887WAT     H219613   2.802   3.857   3.657
 1888WAT      O19614   2.362   4.868   4.252
 1888WAT     H119615   2.282   4.894   4.206
 1888WAT     H219616   2.332   4.805   4.318
 1889WAT      O19617   4.965   4.838   9.281
 1889WAT     H119618   4.912   4.792   9.345
 1889WAT     H219619   5.055   4.825   9.311
 1890WAT      O19620   5.069   4.149  11.005
 1890WAT     H119621   5.063   4.208  10.930
 1890WAT     H219622   5.144   4.092  10.984
 1891WAT      O19623   2.057   4.839   2.061
 1891WAT     H119624   1.994   4.909   2.076
 1891WAT     H219625   2.080   4.807   2.148
 1892WAT      O19626   0.944   2.716  10.440
 1892WAT     H119627   0.902   2.663  10.373
 1892WAT     H219628   0.894   2.698  10.520
 1893WAT      O19629   2.971   5.922  10.498
 1893WAT     H119630   2.935   5.997  10.450
 1893WAT     H219631   2.917   5.848  10.470
 1894WAT      O19632   5.225   0.532   3.421
 1894WAT     H119633   5.270   0.609   3.386
 1894WAT     H219634   5.194   0.486   3.343
 1895WAT      O19635   1.675   3.256   9.969
 1895WAT     H119636   1.704   3.328  10.024
 1895WAT     H219637   1.580   3.256   9.977
 1896WAT      O19638   4.199   2.636  11.006
 1896WAT     H119639   4.223   2.697  11.076
 1896WAT     H219640   4.235   2.552  11.035
 1897WAT      O19641   5.647   2.351  10.359
 1897WAT     H119642   5.642   2.383  10.269
 1897WAT     H219643   5.697   2.269  10.353
 1898WAT      O19644   1.461   2.431  10.201
 1898WAT     H119645   1.427   2.380  10.275
 1898WAT     H219646   1.552   2.403  10.192
 1899WAT      O19647   5.228   3.758   0.085
 1899WAT     H119648   5.287   3.794   0.019
 1899WAT     H219649   5.146   3.806   0.072
 1900WAT      O19650   2.673   2.157  12.606
 1900WAT     H119651   2.720   2.203  12.536
 1900WAT     H219652   2.719   2.073  12.614
 1901WAT      O19653   0.548   5.300  10.902
 1901WAT     H119654   0.469   5.332  10.946
 1901WAT     H219655   0.580   5.376  10.853
 1902WAT      O19656   4.822   2.582   3.963
 1902WAT     H119657   4.889   2.646   3.989
 1902WAT     H219658   4.803   2.604   3.872
 1903WAT      O19659   2.351   1.260  10.925
 1903WAT     H119660   2.331   1.234  11.015
 1903WAT     H219661   2.399   1.186  10.889
 1904WAT      O19662   4.554   1.603  10.123
 1904WAT     H119663   4.520   1.577  10.208
 1904WAT     H219664   4.635   1.649  10.142
 1905WAT      O19665   5.594   0.804   2.779
 1905WAT     H119666   5.641   0.724   2.803
 1905WAT     H219667   5.647   0.875   2.815
 1906WAT      O19668   1.791   4.336  11.149
 1906WAT     H119669   1.879   4.300  11.162
 1906WAT     H219670   1.734   4.260  11.146
 1907WAT      O19671   5.115   3.394   3.841
 1907WAT     H119672   5.099   3.466   3.901
 1907WAT     H219673   5.206   3.369   3.857
 1908WAT      O19674   1.238   2.636   1.092
 1908WAT     H119675   1.217   2.555   1.046
 1908WAT     H219676   1.311   2.673   1.044
 1909WAT      O19677   0.442   2.565   8.491
 1909WAT     H119678   0.538   2.570   8.500
 1909WAT     H219679   0.413   2.529   8.575
 1910WAT      O19680   5.169   4.670   2.261
 1910WAT     H119681   5.201   4.695   2.175
 1910WAT     H219682   5.237   4.611   2.295
 1911WAT      O19683   4.538   1.560  12.143
 1911WAT     H119684   4.602   1.602  12.085
 1911WAT     H219685   4.455   1.604  12.123
 1912WAT      O19686   4.067   3.180  11.892
 1912WAT     H119687   4.017   3.253  11.855
 1912WAT     H219688   4.066   3.114  11.823
 1913WAT      O19689   3.019   0.910   1.652
 1913WAT     H119690   2.985   0.986   1.699
 1913WAT     H219691   2.945   0.878   1.602
 1914WAT      O19692   2.726   3.573   1.846
 1914WAT     H119693   2.714   3.645   1.908
 1914WAT     H219694   2.819   3.552   1.852
 1915WAT      O19695   5.354   4.889   3.333
 1915WAT     H119696   5.377   4.956   3.268
 1915WAT     H219697   5.336   4.810   3.281
 1916WAT      O19698   5.027   1.753  12.267
 1916WAT     H119699   5.065   1.840  12.282
 1916WAT     H219700   5.035   1.739  12.173
 1917WAT      O19701   2.992   0.406   2.797
 1917WAT     H119702   2.902   0.435   2.777
 1917WAT     H219703   3.028   0.477   2.849
 1918WAT      O19704   2.652   3.245  10.516
 1918WAT     H119705   2.585   3.177  10.510
 1918WAT     H219706   2.605   3.327  10.501
 1919WAT      O19707   4.971   3.989   1.193
 1919WAT     H119708   4.881   4.017   1.209
 1919WAT     H219709   5.024   4.047   1.248
 1920WAT      O19710   4.394   4.253   8.294
 1920WAT     H119711   4.427   4.180   8.346
 1920WAT     H219712   4.330   4.214   8.235
 1921WAT      O19713   3.221   5.398   2.771
 1921WAT     H119714   3.316   5.402   2.781
 1921WAT     H219715   3.192   5.487   2.789
 1922WAT      O19716   3.680   3.848   2.895
 1922WAT     H119717   3.730   3.929   2.886
 1922WAT     H219718   3.701   3.816   2.983
 1923WAT      O19719   2.862   3.386   2.979
 1923WAT     H119720   2.841   3.454   2.915
 1923WAT     H219721   2.954   3.365   2.964
 1924WAT      O19722   2.130   6.184  10.257
 1924WAT     H119723   2.191   6.115  10.231
 1924WAT     H219724   2.120   6.237  10.179
 1925WAT      O19725   1.707   5.370   2.109
 1925WAT     H119726   1.646   5.296   2.106
 1925WAT     H219727   1.665   5.433   2.167
 1926WAT      O19728   0.136   0.078   9.050
 1926WAT     H119729   0.142   0.073   8.955
 1926WAT     H219730   0.187   0.156   9.073
 1927WAT      O19731   0.624   4.398   8.462
 1927WAT     H119732   0.682   4.330   8.498
 1927WAT     H219733   0.538   4.357   8.461
 1928WAT      O19734   3.615   1.211   3.954
 1928WAT     H119735   3.521   1.192   3.950
 1928WAT     H219736   3.656   1.139   3.906
 1929WAT      O19737   1.996   5.583   4.437
 1929WAT     H119738   2.091   5.596   4.434
 1929WAT     H219739   1.985   5.498   4.479
 1930WAT      O19740   1.703   5.683   2.235
 1930WAT     H119741   1.764   5.745   2.195
 1930WAT     H219742   1.617   5.710   2.203
 1931WAT      O19743   2.516   3.503  10.540
 1931WAT     H119744   2.428   3.480  10.569
 1931WAT     H219745   2.539   3.578  10.595
 1932WAT      O19746   4.914   5.221   4.423
 1932WAT     H119747   4.910   5.127   4.408
 1932WAT     H219748   5.007   5.238   4.439
 1933WAT      O19749   0.632   5.912   3.116
 1933WAT     H119750   0.701   5.916   3.049
 1933WAT     H219751   0.554   5.944   3.072
 1934WAT      O19752   2.896   0.532   9.928
 1934WAT     H119753   2.966   0.543   9.862
 1934WAT     H219754   2.895   0.438   9.945
 1935WAT      O19755   0.787   4.417   3.595
 1935WAT     H119756   0.697   4.437   3.570
 1935WAT     H219757   0.789   4.433   3.690
 1936WAT      O19758   2.034   5.344   2.095
 1936WAT     H119759   1.940   5.333   2.083
 1936WAT     H219760   2.064   5.385   2.014
 1937WAT      O19761   1.014   3.601  10.293
 1937WAT     H119762   0.941   3.605  10.231
 1937WAT     H219763   0.976   3.563  10.372
 1938WAT      O19764   3.048   0.956   8.629
 1938WAT     H119765   3.087   1.043   8.623
 1938WAT     H219766   2.961   0.971   8.666
 1939WAT      O19767   5.942   0.443   8.914
 1939WAT     H119768   5.999   0.403   8.979
 1939WAT     H219769   6.001   0.480   8.849
 1940WAT      O19770   4.724   3.196   0.465
 1940WAT     H119771   4.806   3.152   0.442
 1940WAT     H219772   4.709   3.172   0.557
 1941WAT      O19773   4.848   3.129   1.725
 1941WAT     H119774   4.856   3.118   1.820
 1941WAT     H219775   4.937   3.120   1.693
 1942WAT      O19776   3.174   4.807  10.382
 1942WAT     H119777   3.263   4.776  10.369
 1942WAT     H219778   3.136   4.745  10.444
 1943WAT      O19779   4.328   0.327   8.268
 1943WAT     H119780   4.341   0.406   8.215
 1943WAT     H219781   4.256   0.351   8.327
 1944WAT      O19782   4.969   1.680  11.940
 1944WAT     H119783   4.958   1.618  11.868
 1944WAT     H219784   5.058   1.713  11.932
 1945WAT      O19785   1.413   4.161   2.000
 1945WAT     H119786   1.459   4.208   2.070
 1945WAT     H219787   1.480   4.147   1.933
 1946WAT      O19788   1.696   2.602   0.783
 1946WAT     H119789   1.643   2.657   0.726
 1946WAT     H219790   1.638   2.578   0.855
 1947WAT      O19791   4.431   1.808  11.745
 1947WAT     H119792   4.361   1.838  11.687
 1947WAT     H219793   4.492   1.881  11.748
 1948WAT      O19794   5.838   5.406   9.906
 1948WAT     H119795   5.743   5.416   9.895
 1948WAT     H219796   5.874   5.425   9.820
 1949WAT      O19797   4.649   1.884   9.215
 1949WAT     H119798   4.743   1.883   9.201
 1949WAT     H219799   4.637   1.942   9.291
 1950WAT      O19800   4.062   0.209   1.752
 1950WAT     H119801   4.031   0.282   1.806
 1950WAT     H219802   4.063   0.134   1.812
 1951WAT      O19803   1.150   1.216  10.203
 1951WAT     H119804   1.201   1.184  10.277
 1951WAT     H219805   1.060   1.198  10.226
 1952WAT      O19806   1.214   3.193  10.838
 1952WAT     H119807   1.274   3.261  10.868
 1952WAT     H219808   1.147   3.239  10.789
 1953WAT      O19809   5.131   4.095   4.432
 1953WAT     H119810   5.077   4.150   4.489
 1953WAT     H219811   5.074   4.022   4.408
 1954WAT      O19812   3.852   5.243  11.943
 1954WAT     H119813   3.921   5.210  11.886
 1954WAT     H219814   3.891   5.240  12.031
 1955WAT      O19815   4.978   0.597   3.560
 1955WAT     H119816   5.050   0.542   3.531
 1955WAT     H219817   5.013   0.686   3.556
 1956WAT      O19818   1.283   1.890   2.727
 1956WAT     H119819   1.258   1.803   2.757
 1956WAT     H219820   1.297   1.881   2.633
 1957WAT      O19821   1.739   1.628  11.070
 1957WAT     H119822   1.760   1.664  10.984
 1957WAT     H219823   1.821   1.587  11.099
 1958WAT      O19824   1.216   5.133   9.088
 1958WAT     H119825   1.135   5.121   9.038
 1958WAT     H219826   1.243   5.044   9.111
 1959WAT      O19827   4.169   4.051   3.921
 1959WAT     H119828   4.144   4.045   4.013
 1959WAT     H219829   4.228   4.126   3.917
 1960WAT      O19830   4.300   1.754   1.754
 1960WAT     H119831   4.390   1.750   1.721
 1960WAT     H219832   4.249   1.790   1.681
 1961WAT      O19833   4.623   2.725   9.793
 1961WAT     H119834   4.704   2.736   9.744
 1961WAT     H219835   4.651   2.704   9.882
 1962WAT      O19836   5.212   4.949   1.545
 1962WAT     H119837   5.292   4.994   1.517
 1962WAT     H219838   5.147   5.019   1.553
 1963WAT      O19839   3.655   0.137   8.525
 1963WAT     H119840   3.689   0.094   8.604
 1963WAT     H219841   3.711   0.213   8.512
 1964WAT      O19842   6.195   0.262   3.522
 1964WAT     H119843   6.146   0.208   3.584
 1964WAT     H219844   6.129   0.317   3.481
 1965WAT      O19845   1.056   2.440  11.669
 1965WAT     H119846   1.095   2.389  11.598
 1965WAT     H219847   0.980   2.482  11.630
 1966WAT      O19848   2.142   6.006   8.177
 1966WAT     H119849   2.160   6.009   8.083
 1966WAT     H219850   2.211   5.950   8.214
 1967WAT      O19851   3.889   2.461   3.621
 1967WAT     H119852   3.818   2.407   3.655
 1967WAT     H219853   3.886   2.449   3.526
 1968WAT      O19854   4.814   0.616   2.198
 1968WAT     H119855   4.724   0.625   2.164
 1968WAT     H219856   4.831   0.699   2.242
 1969WAT      O19857   2.649   0.373   0.791
 1969WAT     H119858   2.739   0.398   0.772
 1969WAT     H219859   2.596   0.426   0.732
 1970WAT      O19860   6.177   5.640   8.944
 1970WAT     H119861   6.142   5.576   8.883
 1970WAT     H219862   6.181   5.593   9.028
 1971WAT      O19863   1.542   1.605  10.844
 1971WAT     H119864   1.554   1.581  10.936
 1971WAT     H219865   1.521   1.699  10.846
 1972WAT      O19866   0.579   3.507  12.306
 1972WAT     H119867   0.630   3.523  12.385
 1972WAT     H219868   0.642   3.519  12.234
 1973WAT      O19869   5.618   2.257   1.599
 1973WAT     H119870   5.642   2.345   1.569
 1973WAT     H219871   5.617   2.265   1.694
 1974WAT      O19872   3.138   2.716   2.489
 1974WAT     H119873   3.112   2.784   2.427
 1974WAT     H219874   3.232   2.729   2.501
 1975WAT      O19875   0.860   2.171   8.937
 1975WAT     H119876   0.880   2.078   8.933
 1975WAT     H219877   0.941   2.212   8.967
 1976WAT      O19878   1.061   0.173  10.865
 1976WAT     H119879   1.111   0.159  10.784
 1976WAT     H219880   1.025   0.087  10.885
 1977WAT      O19881   3.851   3.665  11.260
 1977WAT     H119882   3.911   3.723  11.214
 1977WAT     H219883   3.903   3.588  11.283
 1978WAT      O19884   5.407   2.964  11.209
 1978WAT     H119885   5.482   2.937  11.262
 1978WAT     H219886   5.365   3.033  11.260
 1979WAT      O19887   6.004   6.120   2.256
 1979WAT     H119888   6.002   6.156   2.167
 1979WAT     H219889   6.094   6.089   2.267
 1980WAT      O19890   6.079   5.535  10.728
 1980WAT     H119891   6.036   5.525  10.643
 1980WAT     H219892   6.021   5.592  10.778
 1981WAT      O19893   2.378   1.541   2.763
 1981WAT     H119894   2.349   1.500   2.682
 1981WAT     H219895   2.352   1.478   2.831
 1982WAT      O19896   4.029   2.486   2.013
 1982WAT     H119897   4.071   2.432   2.081
 1982WAT     H219898   3.949   2.519   2.055
 1983WAT      O19899   3.692   3.433   7.826
 1983WAT     H119900   3.614   3.426   7.881
 1983WAT     H219901   3.692   3.353   7.774
 1984WAT      O19902   3.034   1.673   2.350
 1984WAT     H119903   3.075   1.729   2.416
 1984WAT     H219904   3.094   1.675   2.275
 1985WAT      O19905   3.488   2.340   9.901
 1985WAT     H119906   3.466   2.274   9.967
 1985WAT     H219907   3.582   2.331   9.889
 1986WAT      O19908   0.850   2.414   9.657
 1986WAT     H119909   0.778   2.388   9.715
 1986WAT     H219910   0.871   2.334   9.608
 1987WAT      O19911   0.132   2.295   0.481
 1987WAT     H119912   0.114   2.219   0.426
 1987WAT     H219913   0.047   2.318   0.519
 1988WAT      O19914   5.915   5.226  11.313
 1988WAT     H119915   5.822   5.235  11.334
 1988WAT     H219916   5.948   5.315  11.309
 1989WAT      O19917   5.152   1.285   3.482
 1989WAT     H119918   5.196   1.360   3.523
 1989WAT     H219919   5.134   1.313   3.392
 1990WAT      O19920   2.631   3.277  10.901
 1990WAT     H119921   2.587   3.240  10.977
 1990WAT     H219922   2.712   3.226  10.893
 1991WAT      O19923   2.525   1.160   7.713
 1991WAT     H119924   2.499   1.248   7.742
 1991WAT     H219925   2.593   1.134   7.776
 1992WAT      O19926   5.704   5.094   8.810
 1992WAT     H119927   5.743   5.172   8.770
 1992WAT     H219928   5.756   5.079   8.889
 1993WAT      O19929   0.666   3.118  10.465
 1993WAT     H119930   0.583   3.164  10.452
 1993WAT     H219931   0.664   3.046  10.403
 1994WAT      O19932   1.723   5.265   4.608
 1994WAT     H119933   1.736   5.173   4.629
 1994WAT     H219934   1.805   5.308   4.632
 1995WAT      O19935   2.688   2.517   8.773
 1995WAT     H119936   2.700   2.608   8.802
 1995WAT     H219937   2.594   2.501   8.780
 1996WAT      O19938   3.513   2.830   0.197
 1996WAT     H119939   3.450   2.859   0.132
 1996WAT     H219940   3.516   2.901   0.262
 1997WAT      O19941   2.738   3.669   3.402
 1997WAT     H119942   2.684   3.591   3.416
 1997WAT     H219943   2.689   3.740   3.443
 1998WAT      O19944   5.058   4.151   3.007
 1998WAT     H119945   5.086   4.073   2.958
 1998WAT     H219946   5.103   4.224   2.964
 1999WAT      O19947   3.468   0.052   3.132
 1999WAT     H119948   3.552   0.028   3.093
 1999WAT     H219949   3.484   0.137   3.173
 2000WAT      O19950   5.737   4.018   0.759
 2000WAT     H119951   5.647   4.039   0.734
 2000WAT     H219952   5.776   3.980   0.680
 2001WAT      O19953   0.585   3.993   2.236
 2001WAT     H119954   0.545   3.906   2.245
 2001WAT     H219955   0.525   4.052   2.281
 2002WAT      O19956   2.487   5.038   1.359
 2002WAT     H119957   2.421   5.023   1.427
 2002WAT     H219958   2.542   4.960   1.362
 2003WAT      O19959   0.377   0.364  11.961
 2003WAT     H119960   0.288   0.351  11.927
 2003WAT     H219961   0.434   0.334  11.891
 2004WAT      O19962   5.221   0.026  12.491
 2004WAT     H119963   5.291   0.011  12.555
 2004WAT     H219964   5.249  -0.023  12.414
 2005WAT      O19965   2.865   1.670   7.713
 2005WAT     H119966   2.808   1.695   7.640
 2005WAT     H219967   2.819   1.599   7.756
 2006WAT      O19968   4.706   2.497   0.429
 2006WAT     H119969   4.721   2.405   0.410
 2006WAT     H219970   4.792   2.530   0.456
 2007WAT      O19971   3.989   4.719  10.792
 2007WAT     H119972   3.910   4.716  10.738
 2007WAT     H219973   4.015   4.627  10.802
 2008WAT      O19974   4.260   0.517   2.907
 2008WAT     H119975   4.238   0.526   2.814
 2008WAT     H219976   4.227   0.430   2.931
 2009WAT      O19977   2.662   4.043   1.339
 2009WAT     H119978   2.672   4.036   1.434
 2009WAT     H219979   2.577   4.002   1.322
 2010WAT      O19980   2.487   3.824  -0.030
 2010WAT     H119981   2.458   3.776   0.047
 2010WAT     H219982   2.534   3.900   0.005
 2011WAT      O19983   2.465   4.416   1.290
 2011WAT     H119984   2.558   4.418   1.268
 2011WAT     H219985   2.437   4.327   1.269
 2012WAT      O19986   1.008   5.993   1.608
 2012WAT     H119987   1.083   5.971   1.663
 2012WAT     H219988   0.969   6.070   1.650
 2013WAT      O19989   1.776   2.619  11.213
 2013WAT     H119990   1.754   2.712  11.220
 2013WAT     H219991   1.770   2.586  11.303
 2014WAT      O19992   0.805   3.277   1.646
 2014WAT     H119993   0.875   3.306   1.705
 2014WAT     H219994   0.749   3.221   1.701
 2015WAT      O19995   2.420   2.540   8.011
 2015WAT     H119996   2.468   2.616   7.978
 2015WAT     H219997   2.481   2.495   8.069
 2016WAT      O19998   0.509   4.227   1.033
 2016WAT     H119999   0.476   4.203   0.947
 2016WAT     H220000   0.523   4.143   1.077
 2017WAT      O20001   4.970   4.011   9.410
 2017WAT     H120002   5.004   3.961   9.336
 2017WAT     H220003   4.892   4.054   9.376
 2018WAT      O20004   4.036   3.153   8.455
 2018WAT     H120005   4.121   3.160   8.413
 2018WAT     H220006   4.001   3.242   8.453
 2019WAT      O20007   5.578   5.986   9.724
 2019WAT     H120008   5.583   6.000   9.629
 2019WAT     H220009   5.623   5.902   9.738
 2020WAT      O20010   0.719   0.319   1.765
 2020WAT     H120011   0.688   0.408   1.746
 2020WAT     H220012   0.650   0.262   1.729
 2021WAT      O20013   1.309   6.056  11.279
 2021WAT     H120014   1.348   6.078  11.195
 2021WAT     H220015   1.261   6.135  11.305
 2022WAT      O20016   4.376   3.263   4.226
 2022WAT     H120017   4.450   3.322   4.216
 2022WAT     H220018   4.313   3.312   4.278
 2023WAT      O20019   2.389   4.818   9.699
 2023WAT     H120020   2.400   4.723   9.704
 2023WAT     H220021   2.329   4.839   9.771
 2024WAT      O20022   3.229   1.165  10.598
 2024WAT     H120023   3.270   1.130  10.677
 2024WAT     H220024   3.192   1.089  10.554
 2025WAT      O20025   4.772   1.586   3.243
 2025WAT     H120026   4.865   1.599   3.265
 2025WAT     H220027   4.763   1.622   3.155
 2026WAT      O20028   2.563   5.324   3.022
 2026WAT     H120029   2.600   5.373   2.949
 2026WAT     H220030   2.489   5.276   2.984
 2027WAT      O20031   3.525   4.112   0.771
 2027WAT     H120032   3.535   4.133   0.864
 2027WAT     H220033   3.482   4.027   0.770
 2028WAT      O20034   0.533   5.446   1.972
 2028WAT     H120035   0.529   5.407   2.059
 2028WAT     H220036   0.509   5.375   1.913
 2029WAT      O20037   2.372   0.210  11.142
 2029WAT     H120038   2.326   0.130  11.119
 2029WAT     H220039   2.371   0.263  11.062
 2030WAT      O20040   5.597   0.218  10.871
 2030WAT     H120041   5.563   0.287  10.813
 2030WAT     H220042   5.590   0.255  10.959
 2031WAT      O20043   3.411   1.952   9.882
 2031WAT     H120044   3.502   1.940   9.855
 2031WAT     H220045   3.415   2.014   9.954
 2032WAT      O20046   3.323   5.258  10.810
 2032WAT     H120047   3.260   5.299  10.870
 2032WAT     H220048   3.275   5.183  10.773
 2033WAT      O20049   1.207   1.324  10.565
 2033WAT     H120050   1.118   1.312  10.597
 2033WAT     H220051   1.206   1.411  10.524
 2034WAT      O20052   2.183   0.222   2.229
 2034WAT     H120053   2.216   0.136   2.257
 2034WAT     H220054   2.219   0.233   2.141
 2035WAT      O20055   2.202   2.957   3.679
 2035WAT     H120056   2.248   2.958   3.764
 2035WAT     H220057   2.114   2.926   3.700
 2036WAT      O20058   2.933   4.516  11.469
 2036WAT     H120059   3.019   4.557  11.476
 2036WAT     H220060   2.891   4.561  11.395
 2037WAT      O20061   5.598   5.143   3.624
 2037WAT     H120062   5.559   5.174   3.542
 2037WAT     H220063   5.563   5.203   3.690
 2038WAT      O20064   1.135   0.432  11.008
 2038WAT     H120065   1.097   0.349  10.978
 2038WAT     H220066   1.185   0.464  10.932
 2039WAT      O20067   0.585   3.628   2.446
 2039WAT     H120068   0.635   3.702   2.480
 2039WAT     H220069   0.546   3.660   2.365
 2040WAT      O20070   5.308   5.057   3.843
 2040WAT     H120071   5.299   5.042   3.937
 2040WAT     H220072   5.299   4.970   3.804
 2041WAT      O20073   4.307   1.828   1.426
 2041WAT     H120074   4.376   1.801   1.488
 2041WAT     H220075   4.315   1.767   1.353
 2042WAT      O20076   5.668   3.044  10.278
 2042WAT     H120077   5.628   2.971  10.325
 2042WAT     H220078   5.672   3.015  10.187
 2043WAT      O20079   3.111   3.385   0.312
 2043WAT     H120080   3.122   3.461   0.256
 2043WAT     H220081   3.169   3.319   0.275
 2044WAT      O20082   5.905   0.184  12.332
 2044WAT     H120083   5.836   0.183  12.265
 2044WAT     H220084   5.954   0.103  12.316
 2045WAT      O20085   4.876   0.413   9.653
 2045WAT     H120086   4.955   0.388   9.604
 2045WAT     H220087   4.814   0.439   9.585
 2046WAT      O20088   4.974   2.553   3.546
 2046WAT     H120089   4.947   2.569   3.637
 2046WAT     H220090   5.069   2.560   3.547
 2047WAT      O20091   0.275   4.661   4.617
 2047WAT     H120092   0.288   4.755   4.624
 2047WAT     H220093   0.347   4.624   4.670
 2048WAT      O20094   0.888   5.189  11.703
 2048WAT     H120095   0.978   5.173  11.675
 2048WAT     H220096   0.876   5.283  11.693
 2049WAT      O20097   1.300   3.423   0.455
 2049WAT     H120098   1.385   3.443   0.495
 2049WAT     H220099   1.322   3.370   0.378
 2050WAT      O20100   4.025   1.548   9.615
 2050WAT     H120101   4.044   1.574   9.525
 2050WAT     H220102   4.106   1.567   9.662
 2051WAT      O20103   1.358   2.367  10.452
 2051WAT     H120104   1.375   2.451  10.496
 2051WAT     H220105   1.264   2.369  10.432
 2052WAT      O20106   1.975   0.650   3.732
 2052WAT     H120107   1.984   0.555   3.724
 2052WAT     H220108   1.966   0.681   3.642
 2053WAT      O20109   1.374   0.343   0.215
 2053WAT     H120110   1.366   0.352   0.310
 2053WAT     H220111   1.360   0.431   0.181
 2054WAT      O20112   5.072   4.114   8.564
 2054WAT     H120113   5.115   4.199   8.556
 2054WAT     H220114   5.064   4.083   8.474
 2055WAT      O20115   5.091   0.858  12.084
 2055WAT     H120116   5.138   0.775  12.093
 2055WAT     H220117   5.113   0.907  12.164
 2056WAT      O20118   1.951   4.522   7.988
 2056WAT     H120119   1.988   4.435   7.980
 2056WAT     H220120   1.993   4.573   7.919
 2057WAT      O20121   3.644   1.453   1.992
 2057WAT     H120122   3.573   1.389   1.988
 2057WAT     H220123   3.678   1.445   2.081
 2058WAT      O20124   5.754   5.955   2.075
 2058WAT     H120125   5.694   5.974   2.003
 2058WAT     H220126   5.829   6.013   2.060
 2059WAT      O20127   0.168   1.304   8.896
 2059WAT     H120128   0.263   1.308   8.880
 2059WAT     H220129   0.133   1.262   8.817
 2060WAT      O20130   3.008   4.166   2.683
 2060WAT     H120131   3.007   4.219   2.604
 2060WAT     H220132   3.101   4.156   2.704
 2061WAT      O20133   0.663   4.914   8.427
 2061WAT     H120134   0.628   4.848   8.487
 2061WAT     H220135   0.742   4.946   8.471
 2062WAT      O20136   3.056   2.301   3.607
 2062WAT     H120137   2.962   2.283   3.615
 2062WAT     H220138   3.097   2.235   3.663
 2063WAT      O20139   1.062   3.467   3.500
 2063WAT     H120140   1.151   3.464   3.536
 2063WAT     H220141   1.047   3.378   3.467
 2064WAT      O20142   0.478   4.661  11.577
 2064WAT     H120143   0.468   4.697  11.488
 2064WAT     H220144   0.536   4.723  11.621
 2065WAT      O20145   5.554   1.952   9.597
 2065WAT     H120146   5.534   1.859   9.586
 2065WAT     H220147   5.626   1.967   9.536
 2066WAT      O20148   0.229   5.041   0.515
 2066WAT     H120149   0.260   5.105   0.579
 2066WAT     H220150   0.189   4.971   0.568
 2067WAT      O20151   5.513   5.014   4.677
 2067WAT     H120152   5.573   5.026   4.603
 2067WAT     H220153   5.513   4.920   4.693
 2068WAT      O20154   1.634   2.094  11.093
 2068WAT     H120155   1.662   2.185  11.086
 2068WAT     H220156   1.607   2.083  11.184
 2069WAT      O20157   5.973   2.002  11.797
 2069WAT     H120158   5.890   1.973  11.760
 2069WAT     H220159   5.974   2.096  11.782
 2070WAT      O20160   2.911   2.437  12.585
 2070WAT     H120161   2.930   2.375  12.655
 2070WAT     H220162   2.964   2.408  12.511
 2071WAT      O20163   0.460   5.214   2.547
 2071WAT     H120164   0.522   5.226   2.619
 2071WAT     H220165   0.497   5.143   2.495
 2072WAT      O20166   4.531   0.336  10.046
 2072WAT     H120167   4.440   0.313  10.027
 2072WAT     H220168   4.566   0.260  10.091
 2073WAT      O20169   4.189   0.389  12.216
 2073WAT     H120170   4.256   0.320  12.211
 2073WAT     H220171   4.208   0.435  12.297
 2074WAT      O20172   3.680   3.084   4.406
 2074WAT     H120173   3.748   3.148   4.424
 2074WAT     H220174   3.675   3.030   4.485
 2075WAT      O20175   4.709   1.173   0.305
 2075WAT     H120176   4.729   1.234   0.234
 2075WAT     H220177   4.684   1.228   0.379
 2076WAT      O20178   0.917   0.848   2.530
 2076WAT     H120179   0.915   0.866   2.436
 2076WAT     H220180   0.995   0.893   2.561
 2077WAT      O20181   0.405   6.180   0.152
 2077WAT     H120182   0.397   6.135   0.068
 2077WAT     H220183   0.499   6.190   0.166
 2078WAT      O20184   5.179   2.971   9.864
 2078WAT     H120185   5.178   2.943   9.773
 2078WAT     H220186   5.179   2.890   9.914
 2079WAT      O20187   4.918   2.013  11.723
 2079WAT     H120188   4.912   2.071  11.647
 2079WAT     H220189   4.994   1.958  11.705
 2080WAT      O20190   0.621   2.936  12.280
 2080WAT     H120191   0.612   3.013  12.223
 2080WAT     H220192   0.533   2.919  12.312
 2081WAT      O20193   5.663   2.434   8.688
 2081WAT     H120194   5.677   2.504   8.624
 2081WAT     H220195   5.748   2.424   8.731
 2082WAT      O20196   2.809   1.095   1.449
 2082WAT     H120197   2.729   1.054   1.481
 2082WAT     H220198   2.835   1.043   1.373
 2083WAT      O20199   1.184   4.200  11.230
 2083WAT     H120200   1.088   4.192  11.237
 2083WAT     H220201   1.202   4.290  11.258
 2084WAT      O20202   3.662   2.058   1.010
 2084WAT     H120203   3.576   2.048   1.051
 2084WAT     H220204   3.645   2.102   0.927
 2085WAT      O20205   5.875   3.434   8.293
 2085WAT     H120206   5.815   3.500   8.328
 2085WAT     H220207   5.818   3.366   8.257
 2086WAT      O20208   3.339   1.880   0.780
 2086WAT     H120209   3.389   1.832   0.715
 2086WAT     H220210   3.388   1.868   0.862
 2087WAT      O20211   1.515   0.795   8.998
 2087WAT     H120212   1.601   0.818   8.963
 2087WAT     H220213   1.501   0.705   8.968
 2088WAT      O20214   4.590   4.901   9.211
 2088WAT     H120215   4.529   4.857   9.270
 2088WAT     H220216   4.666   4.842   9.207
 2089WAT      O20217   0.540   2.123   2.317
 2089WAT     H120218   0.573   2.143   2.229
 2089WAT     H220219   0.579   2.191   2.373
 2090WAT      O20220   4.438   0.023   3.115
 2090WAT     H120221   4.459   0.054   3.026
 2090WAT     H220222   4.471   0.092   3.173
 2091WAT      O20223   0.571   4.802  10.543
 2091WAT     H120224   0.486   4.762  10.530
 2091WAT     H220225   0.558   4.895  10.522
 2092WAT      O20226   2.866   0.768  10.067
 2092WAT     H120227   2.874   0.673  10.052
 2092WAT     H220228   2.904   0.781  10.154
 2093WAT      O20229   1.623   1.213   0.612
 2093WAT     H120230   1.643   1.138   0.557
 2093WAT     H220231   1.651   1.289   0.561
 2094WAT      O20232   2.040   0.351   9.465
 2094WAT     H120233   1.953   0.311   9.463
 2094WAT     H220234   2.031   0.432   9.415
 2095WAT      O20235   5.433   4.350   8.522
 2095WAT     H120236   5.475   4.330   8.605
 2095WAT     H220237   5.505   4.368   8.462
 2096WAT      O20238   2.069   1.256   9.433
 2096WAT     H120239   2.164   1.253   9.448
 2096WAT     H220240   2.060   1.274   9.339
 2097WAT      O20241   4.223   0.117   9.423
 2097WAT     H120242   4.300   0.174   9.423
 2097WAT     H220243   4.157   0.166   9.472
 2098WAT      O20244   2.088   2.465   0.553
 2098WAT     H120245   2.054   2.519   0.624
 2098WAT     H220246   2.150   2.406   0.596
 2099WAT      O20247   5.540   1.336   3.524
 2099WAT     H120248   5.466   1.378   3.567
 2099WAT     H220249   5.508   1.315   3.436
 2100WAT      O20250   4.617   2.963   1.295
 2100WAT     H120251   4.556   2.893   1.272
 2100WAT     H220252   4.564   3.043   1.292
 2101WAT      O20253   1.532   1.129   5.003
 2101WAT     H120254   1.492   1.042   4.996
 2101WAT     H220255   1.626   1.113   4.992
 2102WAT      O20256   0.086   3.980  12.644
 2102WAT     H120257   0.051   3.911  12.701
 2102WAT     H220258   0.133   3.932  12.575
 2103WAT      O20259   5.504   5.245   8.629
 2103WAT     H120260   5.517   5.196   8.710
 2103WAT     H220261   5.571   5.314   8.632
 2104WAT      O20262   5.281   1.470   3.598
 2104WAT     H120263   5.282   1.443   3.690
 2104WAT     H220264   5.284   1.566   3.601
 2105WAT      O20265   1.795   3.583   7.930
 2105WAT     H120266   1.809   3.489   7.942
 2105WAT     H220267   1.872   3.624   7.968
 2106WAT      O20268   1.314   1.051   4.284
 2106WAT     H120269   1.329   1.028   4.193
 2106WAT     H220270   1.298   0.967   4.327
 2107WAT      O20271   0.449   4.589   1.435
 2107WAT     H120272   0.447   4.672   1.387
 2107WAT     H220273   0.505   4.532   1.382
 2108WAT      O20274   1.705   3.003   9.878
 2108WAT     H120275   1.732   3.088   9.912
 2108WAT     H220276   1.650   2.966   9.947
 2109WAT      O20277   5.762   0.820   0.611
 2109WAT     H120278   5.762   0.809   0.516
 2109WAT     H220279   5.817   0.897   0.626
 2110WAT      O20280   0.168   2.542   7.158
 2110WAT     H120281   0.226   2.551   7.234
 2110WAT     H220282   0.089   2.500   7.193
 2111WAT      O20283   4.049   5.567  10.567
 2111WAT     H120284   4.104   5.506  10.519
 2111WAT     H220285   3.962   5.557  10.528
 2112WAT      O20286   3.745   4.787   9.169
 2112WAT     H120287   3.786   4.719   9.223
 2112WAT     H220288   3.651   4.770   9.176
 2113WAT      O20289   2.930   3.375  12.576
 2113WAT     H120290   2.989   3.418  12.514
 2113WAT     H220291   2.927   3.284  12.546
 2114WAT      O20292   5.864   1.855   8.416
 2114WAT     H120293   5.830   1.885   8.331
 2114WAT     H220294   5.900   1.768   8.397
 2115WAT      O20295   2.538   4.584   3.649
 2115WAT     H120296   2.585   4.619   3.574
 2115WAT     H220297   2.479   4.655   3.676
 2116WAT      O20298   1.075   3.282   9.747
 2116WAT     H120299   1.098   3.191   9.766
 2116WAT     H220300   1.152   3.316   9.701
 2117WAT      O20301   5.530   2.845   7.275
 2117WAT     H120302   5.458   2.907   7.260
 2117WAT     H220303   5.492   2.760   7.256
 2118WAT      O20304   0.637   0.158   0.460
 2118WAT     H120305   0.582   0.189   0.532
 2118WAT     H220306   0.608   0.068   0.445
 2119WAT      O20307   2.612   4.085   4.436
 2119WAT     H120308   2.580   3.995   4.444
 2119WAT     H220309   2.533   4.139   4.439
 2120WAT      O20310   4.074   5.186  12.146
 2120WAT     H120311   4.139   5.175  12.077
 2120WAT     H220312   4.069   5.101  12.190
 2121WAT      O20313   0.670   0.746   2.896
 2121WAT     H120314   0.745   0.757   2.955
 2121WAT     H220315   0.646   0.654   2.904
 2122WAT      O20316   4.091   2.861   0.344
 2122WAT     H120317   4.055   2.947   0.366
 2122WAT     H220318   4.165   2.880   0.287
 2123WAT      O20319   4.680   3.778   9.257
 2123WAT     H120320   4.649   3.735   9.337
 2123WAT     H220321   4.774   3.786   9.270
 2124WAT      O20322   3.916   4.357   1.911
 2124WAT     H120323   3.946   4.271   1.879
 2124WAT     H220324   3.964   4.369   1.993
 2125WAT      O20325   2.554   0.635   0.239
 2125WAT     H120326   2.473   0.585   0.248
 2125WAT     H220327   2.551   0.698   0.311
 2126WAT      O20328   3.260   4.044   9.877
 2126WAT     H120329   3.284   3.957   9.909
 2126WAT     H220330   3.321   4.060   9.805
 2127WAT      O20331   2.226   5.951   0.880
 2127WAT     H120332   2.301   5.892   0.890
 2127WAT     H220333   2.151   5.893   0.867
 2128WAT      O20334   3.477   5.019  12.043
 2128WAT     H120335   3.521   5.058  12.118
 2128WAT     H220336   3.542   5.023  11.973
 2129WAT      O20337   2.043   3.737   0.314
 2129WAT     H120338   1.991   3.719   0.235
 2129WAT     H220339   1.980   3.729   0.386
 2130WAT      O20340   2.272   1.151   2.813
 2130WAT     H120341   2.269   1.244   2.838
 2130WAT     H220342   2.232   1.105   2.887
 2131WAT      O20343   1.054   2.090   8.577
 2131WAT     H120344   1.089   2.052   8.658
 2131WAT     H220345   0.962   2.107   8.596
 2132WAT      O20346   0.597   0.237   2.313
 2132WAT     H120347   0.591   0.153   2.360
 2132WAT     H220348   0.674   0.279   2.349
 2133WAT      O20349   3.394   0.840  11.044
 2133WAT     H120350   3.356   0.905  11.104
 2133WAT     H220351   3.364   0.756  11.078
 2134WAT      O20352   0.248   2.824   2.585
 2134WAT     H120353   0.256   2.770   2.506
 2134WAT     H220354   0.235   2.760   2.656
 2135WAT      O20355   2.348   0.701  10.004
 2135WAT     H120356   2.382   0.612  10.003
 2135WAT     H220357   2.421   0.753  10.039
 2136WAT      O20358   3.984   4.659  11.724
 2136WAT     H120359   3.907   4.697  11.766
 2136WAT     H220360   3.978   4.566  11.742
 2137WAT      O20361   1.410   2.132   1.852
 2137WAT     H120362   1.465   2.121   1.774
 2137WAT     H220363   1.467   2.176   1.915
 2138WAT      O20364   3.064   5.059  10.747
 2138WAT     H120365   3.012   4.980  10.761
 2138WAT     H220366   3.026   5.124  10.806
 2139WAT      O20367   2.486   5.476   1.012
 2139WAT     H120368   2.428   5.442   0.944
 2139WAT     H220369   2.427   5.519   1.074
 2140WAT      O20370   4.789   2.845   9.117
 2140WAT     H120371   4.818   2.902   9.188
 2140WAT     H220372   4.764   2.763   9.160
 2141WAT      O20373   0.043   5.981   9.083
 2141WAT     H120374   0.071   6.072   9.091
 2141WAT     H220375   0.121   5.929   9.104
 2142WAT      O20376   6.101   3.839   4.184
 2142WAT     H120377   6.097   3.792   4.267
 2142WAT     H220378   6.010   3.863   4.166
 2143WAT      O20379   0.109   6.001   4.365
 2143WAT     H120380   0.152   5.980   4.448
 2143WAT     H220381   0.036   6.057   4.390
 2144WAT      O20382   3.196   3.665   1.458
 2144WAT     H120383   3.186   3.740   1.400
 2144WAT     H220384   3.236   3.597   1.404
 2145WAT      O20385   5.539   2.772  12.283
 2145WAT     H120386   5.573   2.709  12.346
 2145WAT     H220387   5.534   2.723  12.201
 2146WAT      O20388   5.532   2.539  10.493
 2146WAT     H120389   5.587   2.472  10.454
 2146WAT     H220390   5.515   2.601  10.422
 2147WAT      O20391   1.681   0.325   1.032
 2147WAT     H120392   1.712   0.245   0.989
 2147WAT     H220393   1.742   0.339   1.104
 2148WAT      O20394   5.803   5.320   8.679
 2148WAT     H120395   5.894   5.299   8.657
 2148WAT     H220396   5.788   5.406   8.639
 2149WAT      O20397   0.093   1.414   1.783
 2149WAT     H120398   0.042   1.389   1.706
 2149WAT     H220399   0.045   1.488   1.821
 2150WAT      O20400   0.931   1.893  11.965
 2150WAT     H120401   1.014   1.942  11.964
 2150WAT     H220402   0.889   1.921  12.047
 2151WAT      O20403   4.104   1.997   9.493
 2151WAT     H120404   4.152   1.919   9.520
 2151WAT     H220405   4.166   2.047   9.440
 2152WAT      O20406   1.001   3.566   0.119
 2152WAT     H120407   0.985   3.507   0.046
 2152WAT     H220408   1.010   3.652   0.080
 2153WAT      O20409   4.745   3.485   0.496
 2153WAT     H120410   4.655   3.518   0.498
 2153WAT     H220411   4.737   3.391   0.508
 2154WAT      O20412   1.249   5.810  12.055
 2154WAT     H120413   1.155   5.827  12.061
 2154WAT     H220414   1.263   5.730  12.105
 2155WAT      O20415   1.129   0.846   0.365
 2155WAT     H120416   1.155   0.907   0.295
 2155WAT     H220417   1.093   0.903   0.433
 2156WAT      O20418   5.869   1.490   7.278
 2156WAT     H120419   5.945   1.434   7.293
 2156WAT     H220420   5.796   1.428   7.266
 2157WAT      O20421   3.753   5.115   9.579
 2157WAT     H120422   3.801   5.184   9.533
 2157WAT     H220423   3.820   5.062   9.621
 2158WAT      O20424   4.593   2.289  12.458
 2158WAT     H120425   4.569   2.349  12.529
 2158WAT     H220426   4.510   2.248  12.432
 2159WAT      O20427   4.944   3.796   0.976
 2159WAT     H120428   4.918   3.710   1.010
 2159WAT     H220429   4.947   3.852   1.054
 2160WAT      O20430   4.731   5.003   4.026
 2160WAT     H120431   4.811   4.954   4.008
 2160WAT     H220432   4.756   5.094   4.014
 2161WAT      O20433   0.581   0.506   2.690
 2161WAT     H120434   0.615   0.561   2.618
 2161WAT     H220435   0.515   0.561   2.731
 2162WAT      O20436   3.230   0.319   0.958
 2162WAT     H120437   3.252   0.388   1.020
 2162WAT     H220438   3.313   0.297   0.915
 2163WAT      O20439   0.707   1.444   0.508
 2163WAT     H120440   0.708   1.500   0.430
 2163WAT     H220441   0.793   1.404   0.510
 2164WAT      O20442   5.918   3.794  12.278
 2164WAT     H120443   6.009   3.793  12.307
 2164WAT     H220444   5.867   3.777  12.357
 2165WAT      O20445   1.200   2.823   1.451
 2165WAT     H120446   1.209   2.859   1.363
 2165WAT     H220447   1.255   2.744   1.449
 2166WAT      O20448   3.797   1.363  11.186
 2166WAT     H120449   3.835   1.288  11.141
 2166WAT     H220450   3.779   1.331  11.275
 2167WAT      O20451   4.948   3.862   3.695
 2167WAT     H120452   5.002   3.785   3.715
 2167WAT     H220453   4.977   3.889   3.608
 2168WAT      O20454   3.667   4.791   2.504
 2168WAT     H120455   3.667   4.849   2.580
 2168WAT     H220456   3.625   4.842   2.435
 2169WAT      O20457   3.274   4.465   1.697
 2169WAT     H120458   3.251   4.496   1.785
 2169WAT     H220459   3.369   4.478   1.691
 2170WAT      O20460   3.301   5.167   4.162
 2170WAT     H120461   3.305   5.237   4.227
 2170WAT     H220462   3.364   5.102   4.191
 2171WAT      O20463   5.621   2.267   3.008
 2171WAT     H120464   5.675   2.212   2.951
 2171WAT     H220465   5.644   2.238   3.097
 2172WAT      O20466   5.467   5.396   9.447
 2172WAT     H120467   5.522   5.377   9.371
 2172WAT     H220468   5.476   5.318   9.502
 2173WAT      O20469   2.589   2.626   2.668
 2173WAT     H120470   2.671   2.672   2.684
 2173WAT     H220471   2.585   2.560   2.738
 2174WAT      O20472   0.833   3.039   3.247
 2174WAT     H120473   0.832   3.033   3.152
 2174WAT     H220474   0.781   2.964   3.276
 2175WAT      O20475   5.357   4.026   1.850
 2175WAT     H120476   5.449   3.998   1.852
 2175WAT     H220477   5.357   4.112   1.893
 2176WAT      O20478   5.705   6.135   7.707
 2176WAT     H120479   5.619   6.103   7.733
 2176WAT     H220480   5.712   6.222   7.746
 2177WAT      O20481   3.910   0.921  12.515
 2177WAT     H120482   3.829   0.965  12.491
 2177WAT     H220483   3.947   0.974  12.585
 2178WAT      O20484   2.183   5.390  11.226
 2178WAT     H120485   2.179   5.314  11.169
 2178WAT     H220486   2.252   5.369  11.289
 2179WAT      O20487   4.062   3.182   4.237
 2179WAT     H120488   4.117   3.113   4.199
 2179WAT     H220489   4.124   3.240   4.282
 2180WAT      O20490   2.433   4.745   1.271
 2180WAT     H120491   2.442   4.670   1.330
 2180WAT     H220492   2.507   4.738   1.210
 2181WAT      O20493   1.333   6.051   1.284
 2181WAT     H120494   1.247   6.088   1.302
 2181WAT     H220495   1.327   5.960   1.315
 2182WAT      O20496   0.835   3.933  10.704
 2182WAT     H120497   0.846   3.838  10.697
 2182WAT     H220498   0.751   3.950  10.663
 2183WAT      O20499   5.946   2.986   0.420
 2183WAT     H120500   5.933   2.897   0.454
 2183WAT     H220501   6.036   2.986   0.386
 2184WAT      O20502   2.613   2.979   2.150
 2184WAT     H120503   2.536   2.923   2.155
 2184WAT     H220504   2.581   3.061   2.111
 2185WAT      O20505   1.601   1.387  10.705
 2185WAT     H120506   1.603   1.467  10.759
 2185WAT     H220507   1.522   1.341  10.733
 2186WAT      O20508   3.713   0.750   8.973
 2186WAT     H120509   3.632   0.720   8.932
 2186WAT     H220510   3.684   0.811   9.040
 2187WAT      O20511   2.007   5.162   9.280
 2187WAT     H120512   2.032   5.109   9.355
 2187WAT     H220513   2.090   5.181   9.235
 2188WAT      O20514   2.253   5.760   4.459
 2188WAT     H120515   2.314   5.832   4.442
 2188WAT     H220516   2.308   5.689   4.492
 2189WAT      O20517   2.517   4.032   2.907
 2189WAT     H120518   2.474   3.953   2.874
 2189WAT     H220519   2.578   4.057   2.839
 2190WAT      O20520   5.282   2.792   8.307
 2190WAT     H120521   5.225   2.810   8.233
 2190WAT     H220522   5.228   2.742   8.368
 2191WAT      O20523   2.576   1.340   2.735
 2191WAT     H120524   2.505   1.343   2.671
 2191WAT     H220525   2.614   1.428   2.735
 2192WAT      O20526   0.053   1.610  11.116
 2192WAT     H120527   0.090   1.678  11.061
 2192WAT     H220528  -0.028   1.584  11.071
 2193WAT      O20529   5.576   0.333   8.528
 2193WAT     H120530   5.536   0.251   8.555
 2193WAT     H220531   5.669   0.322   8.548
 2194WAT      O20532   2.619   2.701   3.036
 2194WAT     H120533   2.700   2.737   3.001
 2194WAT     H220534   2.551   2.735   2.979
 2195WAT      O20535   0.513   2.747  10.425
 2195WAT     H120536   0.459   2.714  10.353
 2195WAT     H220537   0.456   2.744  10.502
 2196WAT      O20538   2.425   1.673   3.898
 2196WAT     H120539   2.448   1.604   3.836
 2196WAT     H220540   2.502   1.731   3.899
 2197WAT      O20541   6.039   2.507   0.056
 2197WAT     H120542   6.052   2.520  -0.038
 2197WAT     H220543   5.985   2.582   0.083
 2198WAT      O20544   5.198   3.285  11.043
 2198WAT     H120545   5.278   3.233  11.033
 2198WAT     H220546   5.222   3.353  11.105
 2199WAT      O20547   4.179   2.906   2.700
 2199WAT     H120548   4.130   2.945   2.627
 2199WAT     H220549   4.252   2.861   2.659
 2200WAT      O20550   3.391   0.132   8.771
 2200WAT     H120551   3.431   0.154   8.855
 2200WAT     H220552   3.306   0.094   8.794
 2201WAT      O20553   2.458   4.791   8.954
 2201WAT     H120554   2.457   4.809   8.860
 2201WAT     H220555   2.510   4.862   8.991
 2202WAT      O20556   0.892   1.182  10.230
 2202WAT     H120557   0.812   1.144  10.193
 2202WAT     H220558   0.890   1.158  10.322
 2203WAT      O20559   4.962   2.179   3.270
 2203WAT     H120560   4.998   2.206   3.354
 2203WAT     H220561   4.903   2.106   3.291
 2204WAT      O20562   0.425   4.781   0.457
 2204WAT     H120563   0.347   4.828   0.485
 2204WAT     H220564   0.449   4.821   0.374
 2205WAT      O20565   4.416   1.281   0.208
 2205WAT     H120566   4.464   1.233   0.140
 2205WAT     H220567   4.446   1.372   0.199
 2206WAT      O20568   3.745   5.216  10.582
 2206WAT     H120569   3.728   5.183  10.670
 2206WAT     H220570   3.668   5.191  10.531
 2207WAT      O20571   5.187   2.565   1.975
 2207WAT     H120572   5.273   2.547   1.937
 2207WAT     H220573   5.126   2.555   1.902
 2208WAT      O20574   2.974   3.586  11.357
 2208WAT     H120575   2.886   3.597  11.395
 2208WAT     H220576   3.014   3.672  11.367
 2209WAT      O20577   1.769   2.282   1.030
 2209WAT     H120578   1.720   2.363   1.022
 2209WAT     H220579   1.855   2.302   0.992
 2210WAT      O20580   0.264   3.853   0.828
 2210WAT     H120581   0.293   3.816   0.745
 2210WAT     H220582   0.192   3.796   0.856
 2211WAT      O20583   5.681   1.139   2.578
 2211WAT     H120584   5.598   1.187   2.582
 2211WAT     H220585   5.747   1.207   2.566
 2212WAT      O20586   1.584   2.814   0.639
 2212WAT     H120587   1.620   2.869   0.709
 2212WAT     H220588   1.652   2.814   0.572
 2213WAT      O20589   0.801   3.677   9.246
 2213WAT     H120590   0.813   3.588   9.211
 2213WAT     H220591   0.768   3.663   9.335
 2214WAT      O20592   3.298   1.325  11.883
 2214WAT     H120593   3.342   1.342  11.967
 2214WAT     H220594   3.370   1.308  11.822
 2215WAT      O20595   3.849   3.348   1.955
 2215WAT     H120596   3.876   3.266   1.912
 2215WAT     H220597   3.893   3.416   1.904
 2216WAT      O20598   0.544   3.093   9.493
 2216WAT     H120599   0.575   3.020   9.439
 2216WAT     H220600   0.463   3.121   9.450
 2217WAT      O20601   4.524   5.536   2.024
 2217WAT     H120602   4.502   5.579   1.942
 2217WAT     H220603   4.613   5.502   2.010
 2218WAT      O20604   0.390   1.199   3.674
 2218WAT     H120605   0.484   1.181   3.683
 2218WAT     H220606   0.355   1.187   3.762
 2219WAT      O20607   0.416   4.738   3.881
 2219WAT     H120608   0.463   4.821   3.868
 2219WAT     H220609   0.342   4.761   3.937
 2220WAT      O20610   5.193   3.513  10.667
 2220WAT     H120611   5.251   3.562  10.609
 2220WAT     H220612   5.178   3.430  10.622
 2221WAT      O20613   2.030   2.907   3.147
 2221WAT     H120614   1.968   2.976   3.124
 2221WAT     H220615   2.050   2.923   3.239
 2222WAT      O20616   0.621   1.144   2.704
 2222WAT     H120617   0.654   1.061   2.671
 2222WAT     H220618   0.575   1.183   2.628
 2223WAT      O20619   2.262   3.556  12.664
 2223WAT     H120620   2.207   3.622  12.621
 2223WAT     H220621   2.285   3.597  12.748
 2224WAT      O20622   3.560   4.906   7.507
 2224WAT     H120623   3.568   5.000   7.487
 2224WAT     H220624   3.471   4.883   7.481
 2225WAT      O20625   5.132   1.395   3.166
 2225WAT     H120626   5.111   1.302   3.172
 2225WAT     H220627   5.134   1.413   3.072
 2226WAT      O20628   5.435   1.129   8.237
 2226WAT     H120629   5.395   1.197   8.293
 2226WAT     H220630   5.445   1.172   8.152
 2227WAT      O20631   6.232   3.863   1.333
 2227WAT     H120632   6.314   3.873   1.382
 2227WAT     H220633   6.163   3.881   1.397
 2228WAT      O20634   0.818   0.595   0.883
 2228WAT     H120635   0.865   0.623   0.805
 2228WAT     H220636   0.867   0.519   0.915
 2229WAT      O20637   3.280   5.636  10.876
 2229WAT     H120638   3.215   5.659  10.942
 2229WAT     H220639   3.232   5.640  10.793
 2230WAT      O20640   6.183   5.690   1.550
 2230WAT     H120641   6.095   5.714   1.523
 2230WAT     H220642   6.172   5.612   1.604
 2231WAT      O20643   2.423   1.305   0.422
 2231WAT     H120644   2.505   1.277   0.464
 2231WAT     H220645   2.380   1.360   0.487
 2232WAT      O20646   3.673   1.744   9.386
 2232WAT     H120647   3.726   1.823   9.380
 2232WAT     H220648   3.595   1.771   9.435
 2233WAT      O20649   0.603   4.239  11.163
 2233WAT     H120650   0.649   4.220  11.081
 2233WAT     H220651   0.612   4.159  11.215
 2234WAT      O20652   1.926   6.019  10.383
 2234WAT     H120653   1.981   6.094  10.360
 2234WAT     H220654   1.947   5.953  10.316
 2235WAT      O20655   3.451   0.931   2.636
 2235WAT     H120656   3.419   0.931   2.546
 2235WAT     H220657   3.455   0.838   2.659
 2236WAT      O20658   2.878   1.286  10.702
 2236WAT     H120659   2.954   1.257  10.752
 2236WAT     H220660   2.860   1.214  10.641
 2237WAT      O20661   1.087   3.937  12.003
 2237WAT     H120662   1.041   3.996  12.062
 2237WAT     H220663   1.093   3.985  11.920
 2238WAT      O20664   5.273   5.610   0.431
 2238WAT     H120665   5.201   5.611   0.369
 2238WAT     H220666   5.263   5.691   0.481
 2239WAT      O20667   5.091   0.210   1.063
 2239WAT     H120668   5.158   0.143   1.078
 2239WAT     H220669   5.045   0.180   0.984
 2240WAT      O20670   5.092   2.603   9.951
 2240WAT     H120671   4.998   2.612   9.935
 2240WAT     H220672   5.111   2.510   9.937
 2241WAT      O20673   2.711   5.708   0.523
 2241WAT     H120674   2.714   5.676   0.433
 2241WAT     H220675   2.684   5.799   0.515
 2242WAT      O20676   3.431   4.287  10.227
 2242WAT     H120677   3.346   4.310  10.192
 2242WAT     H220678   3.419   4.199  10.262
 2243WAT      O20679   3.949   2.404   3.917
 2243WAT     H120680   4.034   2.362   3.929
 2243WAT     H220681   3.885   2.333   3.922
 2244WAT      O20682   5.667   1.205   0.406
 2244WAT     H120683   5.593   1.240   0.357
 2244WAT     H220684   5.629   1.171   0.487
 2245WAT      O20685   0.377   4.984   3.268
 2245WAT     H120686   0.298   4.965   3.218
 2245WAT     H220687   0.376   5.079   3.281
 2246WAT      O20688   4.806   2.897   3.057
 2246WAT     H120689   4.747   2.967   3.084
 2246WAT     H220690   4.883   2.908   3.112
 2247WAT      O20691   5.316   3.921   8.714
 2247WAT     H120692   5.330   3.983   8.643
 2247WAT     H220693   5.224   3.896   8.707
 2248WAT      O20694   3.030   1.927   4.939
 2248WAT     H120695   3.067   1.856   4.993
 2248WAT     H220696   2.941   1.899   4.921
 2249WAT      O20697   1.272   4.465   7.895
 2249WAT     H120698   1.349   4.522   7.883
 2249WAT     H220699   1.304   4.378   7.873
 2250WAT      O20700   0.412   0.169   3.063
 2250WAT     H120701   0.496   0.209   3.084
 2250WAT     H220702   0.392   0.200   2.975
 2251WAT      O20703   5.843   1.080  12.197
 2251WAT     H120704   5.834   1.036  12.282
 2251WAT     H220705   5.935   1.106  12.193
 2252WAT      O20706   3.264   1.033   9.588
 2252WAT     H120707   3.227   0.970   9.650
 2252WAT     H220708   3.193   1.049   9.526
 2253WAT      O20709   5.385   1.859   7.801
 2253WAT     H120710   5.429   1.783   7.764
 2253WAT     H220711   5.317   1.823   7.858
 2254WAT      O20712   5.776   3.900  11.416
 2254WAT     H120713   5.787   3.894  11.321
 2254WAT     H220714   5.856   3.942  11.447
 2255WAT      O20715   5.841   5.690   1.813
 2255WAT     H120716   5.909   5.723   1.872
 2255WAT     H220717   5.787   5.766   1.794
 2256WAT      O20718   1.386   2.659   8.917
 2256WAT     H120719   1.389   2.591   8.850
 2256WAT     H220720   1.460   2.640   8.974
 2257WAT      O20721   2.889   4.522   4.396
 2257WAT     H120722   2.945   4.519   4.473
 2257WAT     H220723   2.858   4.432   4.385
 2258WAT      O20724   4.127   2.417  12.523
 2258WAT     H120725   4.062   2.482  12.494
 2258WAT     H220726   4.194   2.419  12.455
 2259WAT      O20727   5.056   4.836  10.399
 2259WAT     H120728   5.115   4.911  10.408
 2259WAT     H220729   5.059   4.792  10.484
 2260WAT      O20730   1.288   3.443   8.318
 2260WAT     H120731   1.279   3.495   8.238
 2260WAT     H220732   1.233   3.366   8.304
 2261WAT      O20733   4.469   1.545   3.842
 2261WAT     H120734   4.461   1.565   3.936
 2261WAT     H220735   4.417   1.465   3.830
 2262WAT      O20736   0.484   3.311   0.338
 2262WAT     H120737   0.495   3.278   0.249
 2262WAT     H220738   0.428   3.246   0.381
 2263WAT      O20739   5.410   2.123   2.875
 2263WAT     H120740   5.457   2.184   2.932
 2263WAT     H220741   5.378   2.055   2.933
 2264WAT      O20742   5.422   4.778  12.581
 2264WAT     H120743   5.470   4.748  12.504
 2264WAT     H220744   5.331   4.753  12.564
 2265WAT      O20745   3.417   6.015   0.675
 2265WAT     H120746   3.424   5.926   0.641
 2265WAT     H220747   3.336   6.015   0.726
 2266WAT      O20748   3.345   4.426   2.646
 2266WAT     H120749   3.374   4.434   2.555
 2266WAT     H220750   3.274   4.490   2.654
 2267WAT      O20751   5.522   0.964   1.019
 2267WAT     H120752   5.449   0.959   1.081
 2267WAT     H220753   5.529   0.876   0.984
 2268WAT      O20754   4.338   2.526   3.960
 2268WAT     H120755   4.317   2.453   3.901
 2268WAT     H220756   4.308   2.497   4.046
 2269WAT      O20757   4.111   5.734   0.636
 2269WAT     H120758   4.112   5.823   0.601
 2269WAT     H220759   4.061   5.741   0.717
 2270WAT      O20760   0.684   4.881   1.322
 2270WAT     H120761   0.589   4.873   1.330
 2270WAT     H220762   0.714   4.793   1.299
 2271WAT      O20763   6.193   3.449  11.046
 2271WAT     H120764   6.178   3.379  11.111
 2271WAT     H220765   6.114   3.503  11.052
 2272WAT      O20766   6.081   3.547   0.286
 2272WAT     H120767   6.097   3.455   0.307
 2272WAT     H220768   6.061   3.588   0.370
 2273WAT      O20769   5.884   0.816   7.335
 2273WAT     H120770   5.974   0.789   7.314
 2273WAT     H220771   5.835   0.734   7.338
 2274WAT      O20772   2.080   0.799   0.249
 2274WAT     H120773   2.102   0.782   0.157
 2274WAT     H220774   2.015   0.733   0.270
 2275WAT      O20775   5.285   2.005   4.074
 2275WAT     H120776   5.213   2.046   4.122
 2275WAT     H220777   5.364   2.049   4.107
 2276WAT      O20778   0.650   1.139   9.005
 2276WAT     H120779   0.711   1.168   9.073
 2276WAT     H220780   0.565   1.175   9.032
 2277WAT      O20781   5.200   4.927   9.657
 2277WAT     H120782   5.223   4.923   9.750
 2277WAT     H220783   5.105   4.923   9.655
 2278WAT      O20784   2.051   0.303   0.906
 2278WAT     H120785   1.983   0.370   0.901
 2278WAT     H220786   2.008   0.227   0.945
 2279WAT      O20787   4.408   0.941   3.853
 2279WAT     H120788   4.475   0.888   3.811
 2279WAT     H220789   4.450   0.974   3.933
 2280WAT      O20790   0.495   4.362  10.643
 2280WAT     H120791   0.553   4.409  10.702
 2280WAT     H220792   0.496   4.414  10.562
 2281WAT      O20793   3.884   4.464  11.158
 2281WAT     H120794   3.917   4.548  11.125
 2281WAT     H220795   3.955   4.429  11.211
 2282WAT      O20796   2.697   0.647  12.444
 2282WAT     H120797   2.603   0.633  12.429
 2282WAT     H220798   2.739   0.580  12.390
 2283WAT      O20799   6.160   3.461   1.274
 2283WAT     H120800   6.172   3.414   1.356
 2283WAT     H220801   6.170   3.553   1.298
 2284WAT      O20802   3.777   6.026  12.366
 2284WAT     H120803   3.850   6.081  12.393
 2284WAT     H220804   3.760   6.053  12.275
 2285WAT      O20805   0.323   4.800   3.016
 2285WAT     H120806   0.271   4.881   3.016
 2285WAT     H220807   0.355   4.792   2.927
 2286WAT      O20808   4.714   2.414   8.017
 2286WAT     H120809   4.770   2.464   8.077
 2286WAT     H220810   4.720   2.462   7.934
 2287WAT      O20811   0.879   2.884   3.526
 2287WAT     H120812   0.810   2.940   3.561
 2287WAT     H220813   0.887   2.813   3.591
 2288WAT      O20814   1.780   4.842   3.411
 2288WAT     H120815   1.787   4.813   3.502
 2288WAT     H220816   1.722   4.778   3.370
 2289WAT      O20817   5.425   0.218  12.020
 2289WAT     H120818   5.465   0.250  12.100
 2289WAT     H220819   5.375   0.292  11.986
 2290WAT      O20820   2.051   5.976  12.414
 2290WAT     H120821   2.067   5.903  12.354
 2290WAT     H220822   2.137   6.017  12.426
 2291WAT      O20823   4.857   5.569   4.073
 2291WAT     H120824   4.938   5.576   4.125
 2291WAT     H220825   4.789   5.606   4.129
 2292WAT      O20826   6.199   4.996   7.357
 2292WAT     H120827   6.204   5.012   7.451
 2292WAT     H220828   6.291   4.986   7.330
 2293WAT      O20829   5.056   5.047   8.609
 2293WAT     H120830   5.056   4.990   8.686
 2293WAT     H220831   5.006   4.998   8.543
 2294WAT      O20832   2.627   3.707   0.449
 2294WAT     H120833   2.614   3.800   0.468
 2294WAT     H220834   2.575   3.661   0.514
 2295WAT      O20835   0.003   4.505   9.703
 2295WAT     H120836  -0.005   4.450   9.625
 2295WAT     H220837   0.038   4.588   9.669
 2296WAT      O20838   6.201   1.790   0.680
 2296WAT     H120839   6.118   1.742   0.677
 2296WAT     H220840   6.222   1.809   0.589
 2297WAT      O20841   6.012   2.056   9.848
 2297WAT     H120842   6.101   2.071   9.880
 2297WAT     H220843   5.999   2.124   9.782
 2298WAT      O20844   1.320   2.289  11.232
 2298WAT     H120845   1.272   2.371  11.239
 2298WAT     H220846   1.403   2.306  11.278
 2299WAT      O20847   6.084   4.096   3.201
 2299WAT     H120848   6.020   4.084   3.271
 2299WAT     H220849   6.038   4.147   3.134
 2300WAT      O20850   5.528   5.157  11.093
 2300WAT     H120851   5.604   5.101  11.081
 2300WAT     H220852   5.543   5.232  11.035
 2301WAT      O20853   0.199   1.114   2.662
 2301WAT     H120854   0.217   1.123   2.569
 2301WAT     H220855   0.187   1.020   2.675
 2302WAT      O20856   3.015   3.698   0.983
 2302WAT     H120857   3.038   3.737   1.067
 2302WAT     H220858   2.923   3.674   0.992
 2303WAT      O20859   0.922   3.057  10.307
 2303WAT     H120860   0.922   3.092  10.396
 2303WAT     H220861   0.838   3.012  10.299
 2304WAT      O20862   4.808   4.135  11.117
 2304WAT     H120863   4.847   4.099  11.037
 2304WAT     H220864   4.820   4.230  11.108
 2305WAT      O20865   1.205   2.239  11.939
 2305WAT     H120866   1.165   2.221  11.853
 2305WAT     H220867   1.285   2.288  11.918
 2306WAT      O20868   1.875   4.399   4.432
 2306WAT     H120869   1.801   4.362   4.383
 2306WAT     H220870   1.917   4.323   4.472
 2307WAT      O20871   5.086   0.587  11.407
 2307WAT     H120872   5.042   0.518  11.456
 2307WAT     H220873   5.110   0.652  11.473
 2308WAT      O20874   1.563   4.948   2.292
 2308WAT     H120875   1.623   4.879   2.320
 2308WAT     H220876   1.580   5.020   2.353
 2309WAT      O20877   5.161   3.781   9.888
 2309WAT     H120878   5.244   3.824   9.870
 2309WAT     H220879   5.111   3.845   9.940
 2310WAT      O20880   2.913   2.294   9.580
 2310WAT     H120881   2.834   2.270   9.531
 2310WAT     H220882   2.944   2.211   9.616
 2311WAT      O20883   1.649   0.152  12.033
 2311WAT     H120884   1.604   0.186  12.110
 2311WAT     H220885   1.742   0.159  12.055
 2312WAT      O20886   4.710   3.784   7.771
 2312WAT     H120887   4.744   3.706   7.726
 2312WAT     H220888   4.719   3.854   7.706
 2313WAT      O20889   4.133   1.699   3.393
 2313WAT     H120890   4.195   1.770   3.406
 2313WAT     H220891   4.157   1.633   3.458
 2314WAT      O20892   6.025   3.950   1.498
 2314WAT     H120893   5.998   3.922   1.586
 2314WAT     H220894   6.018   4.045   1.501
 2315WAT      O20895   2.843   6.085   8.945
 2315WAT     H120896   2.776   6.142   8.983
 2315WAT     H220897   2.840   6.006   8.999
 2316WAT      O20898   0.565   5.394  11.909
 2316WAT     H120899   0.609   5.440  11.980
 2316WAT     H220900   0.543   5.462  11.846
 2317WAT      O20901   3.303   0.742  11.817
 2317WAT     H120902   3.234   0.805  11.837
 2317WAT     H220903   3.374   0.763  11.878
 2318WAT      O20904   3.317   4.783   8.552
 2318WAT     H120905   3.304   4.824   8.638
 2318WAT     H220906   3.411   4.768   8.547
 2319WAT      O20907   3.362   4.990   7.800
 2319WAT     H120908   3.415   5.053   7.849
 2319WAT     H220909   3.402   4.905   7.820
 2320WAT      O20910   2.324   4.583   0.036
 2320WAT     H120911   2.349   4.651   0.098
 2320WAT     H220912   2.385   4.592  -0.037
 2321WAT      O20913   1.613   2.475   8.856
 2321WAT     H120914   1.648   2.531   8.925
 2321WAT     H220915   1.616   2.528   8.777
 2322WAT      O20916   5.441   1.921   2.692
 2322WAT     H120917   5.513   1.944   2.634
 2322WAT     H220918   5.440   1.991   2.758
 2323WAT      O20919   5.010   4.247   1.584
 2323WAT     H120920   4.990   4.295   1.664
 2323WAT     H220921   5.076   4.183   1.610
 2324WAT      O20922   1.913   5.123   3.442
 2324WAT     H120923   1.864   5.040   3.448
 2324WAT     H220924   1.866   5.173   3.376
 2325WAT      O20925   0.099   5.800   0.306
 2325WAT     H120926   0.191   5.800   0.334
 2325WAT     H220927   0.086   5.887   0.268
 2326WAT      O20928   3.790   3.369   0.642
 2326WAT     H120929   3.833   3.373   0.557
 2326WAT     H220930   3.697   3.368   0.623
 2327WAT      O20931   3.122   5.190   7.868
 2327WAT     H120932   3.194   5.148   7.914
 2327WAT     H220933   3.046   5.177   7.925
 2328WAT      O20934   3.984   4.484   9.087
 2328WAT     H120935   3.929   4.525   9.153
 2328WAT     H220936   4.055   4.546   9.073
 2329WAT      O20937   1.098   5.676   9.655
 2329WAT     H120938   1.113   5.711   9.743
 2329WAT     H220939   1.003   5.685   9.643
 2330WAT      O20940   2.228   3.295  10.378
 2330WAT     H120941   2.194   3.372  10.425
 2330WAT     H220942   2.201   3.221  10.433
 2331WAT      O20943   0.357   4.297   0.447
 2331WAT     H120944   0.291   4.356   0.412
 2331WAT     H220945   0.351   4.219   0.392
 2332WAT      O20946   4.731   4.553   3.047
 2332WAT     H120947   4.650   4.546   2.997
 2332WAT     H220948   4.784   4.478   3.018
 2333WAT      O20949   1.007   5.043   0.454
 2333WAT     H120950   0.939   5.110   0.453
 2333WAT     H220951   0.961   4.962   0.473
 2334WAT      O20952   3.718   4.584   9.744
 2334WAT     H120953   3.793   4.524   9.746
 2334WAT     H220954   3.682   4.573   9.656
 2335WAT      O20955   1.453   0.872  12.537
 2335WAT     H120956   1.468   0.955  12.492
 2335WAT     H220957   1.537   0.826  12.530
 2336WAT      O20958   2.209   0.112  10.013
 2336WAT     H120959   2.197   0.195  10.059
 2336WAT     H220960   2.302   0.111   9.990
 2337WAT      O20961   4.560   0.764   9.211
 2337WAT     H120962   4.470   0.740   9.187
 2337WAT     H220963   4.584   0.702   9.280
 2338WAT      O20964   5.248   0.539   9.723
 2338WAT     H120965   5.222   0.455   9.686
 2338WAT     H220966   5.296   0.517   9.802
 2339WAT      O20967   3.404   0.229  12.293
 2339WAT     H120968   3.451   0.172  12.354
 2339WAT     H220969   3.319   0.242  12.334
 2340WAT      O20970   1.566   0.773   2.918
 2340WAT     H120971   1.518   0.695   2.890
 2340WAT     H220972   1.505   0.818   2.978
 2341WAT      O20973   3.244   4.248   0.141
 2341WAT     H120974   3.211   4.202   0.218
 2341WAT     H220975   3.303   4.314   0.175
 2342WAT      O20976   0.866   2.499   0.878
 2342WAT     H120977   0.925   2.525   0.808
 2342WAT     H220978   0.921   2.496   0.956
 2343WAT      O20979   0.067   3.835   4.006
 2343WAT     H120980   0.006   3.834   4.079
 2343WAT     H220981   0.012   3.836   3.928
 2344WAT      O20982   4.358   3.002  10.540
 2344WAT     H120983   4.406   3.083  10.525
 2344WAT     H220984   4.413   2.952  10.600
 2345WAT      O20985   4.617   4.596   2.506
 2345WAT     H120986   4.599   4.636   2.591
 2345WAT     H220987   4.712   4.600   2.497
 2346WAT      O20988   1.492   0.360   2.019
 2346WAT     H120989   1.555   0.430   2.002
 2346WAT     H220990   1.443   0.389   2.096
 2347WAT      O20991   1.861   4.285   1.304
 2347WAT     H120992   1.833   4.338   1.230
 2347WAT     H220993   1.916   4.217   1.266
 2348WAT      O20994   1.382   5.746   8.332
 2348WAT     H120995   1.349   5.769   8.245
 2348WAT     H220996   1.404   5.830   8.372
 2349WAT      O20997   0.045   5.831  12.458
 2349WAT     H120998   0.140   5.835  12.468
 2349WAT     H220999   0.013   5.909  12.501
 2350WAT      O21000   6.147   4.504   1.913
 2350WAT     H121001   6.230   4.480   1.872
 2350WAT     H221002   6.080   4.466   1.856
 2351WAT      O21003   0.522   1.288   1.200
 2351WAT     H121004   0.541   1.328   1.115
 2351WAT     H221005   0.519   1.361   1.261
 2352WAT      O21006   3.045   4.564   4.637
 2352WAT     H121007   3.111   4.630   4.661
 2352WAT     H221008   3.096   4.486   4.617
 2353WAT      O21009   3.284   3.175   1.267
 2353WAT     H121010   3.225   3.249   1.250
 2353WAT     H221011   3.315   3.189   1.356
 2354WAT      O21012   0.049   0.974   4.519
 2354WAT     H121013  -0.008   0.941   4.450
 2354WAT     H221014   0.015   1.061   4.539
 2355WAT      O21015   4.721   3.782   1.198
 2355WAT     H121016   4.741   3.705   1.145
 2355WAT     H221017   4.726   3.856   1.138
 2356WAT      O21018   1.181   4.020   4.681
 2356WAT     H121019   1.223   3.968   4.612
 2356WAT     H221020   1.251   4.075   4.715
 2357WAT      O21021   5.581   4.575   0.460
 2357WAT     H121022   5.644   4.532   0.403
 2357WAT     H221023   5.551   4.505   0.519
 2358WAT      O21024   5.265   3.989   2.439
 2358WAT     H121025   5.268   3.906   2.486
 2358WAT     H221026   5.308   3.971   2.355
 2359WAT      O21027   0.594   2.001   0.228
 2359WAT     H121028   0.578   1.989   0.322
 2359WAT     H221029   0.683   1.968   0.216
 2360WAT      O21030   0.953   3.806   8.476
 2360WAT     H121031   0.987   3.863   8.408
 2360WAT     H221032   1.022   3.740   8.490
 2361WAT      O21033   5.938   5.778   9.521
 2361WAT     H121034   5.858   5.793   9.571
 2361WAT     H221035   6.008   5.782   9.586
 2362WAT      O21036   4.619   2.946   3.727
 2362WAT     H121037   4.628   2.918   3.636
 2362WAT     H221038   4.597   3.039   3.722
 2363WAT      O21039   5.219   1.837   8.270
 2363WAT     H121040   5.307   1.802   8.280
 2363WAT     H221041   5.221   1.883   8.186
 2364WAT      O21042   6.110   2.875  12.623
 2364WAT     H121043   6.041   2.823  12.663
 2364WAT     H221044   6.066   2.954  12.593
 2365WAT      O21045   2.148   5.543  12.501
 2365WAT     H121046   2.079   5.542  12.435
 2365WAT     H221047   2.225   5.507  12.455
 2366WAT      O21048   4.928   2.079  10.929
 2366WAT     H121049   4.956   2.100  11.019
 2366WAT     H221050   5.009   2.067  10.881
 2367WAT      O21051   3.816   0.857  10.251
 2367WAT     H121052   3.910   0.839  10.246
 2367WAT     H221053   3.799   0.921  10.182
 2368WAT      O21054   0.537   0.237  10.225
 2368WAT     H121055   0.445   0.208  10.230
 2368WAT     H221056   0.561   0.221  10.134
 2369WAT      O21057   3.701   0.472   2.468
 2369WAT     H121058   3.689   0.399   2.408
 2369WAT     H221059   3.613   0.488   2.503
 2370WAT      O21060   2.240   2.771   1.509
 2370WAT     H121061   2.335   2.783   1.507
 2370WAT     H221062   2.208   2.820   1.433
 2371WAT      O21063   4.014   1.588  12.647
 2371WAT     H121064   4.071   1.514  12.627
 2371WAT     H221065   4.035   1.611  12.738
 2372WAT      O21066   3.531   0.928   0.950
 2372WAT     H121067   3.507   1.010   0.906
 2372WAT     H221068   3.535   0.864   0.879
 2373WAT      O21069   5.221   1.243   0.836
 2373WAT     H121070   5.230   1.183   0.761
 2373WAT     H221071   5.309   1.275   0.852
 2374WAT      O21072   5.008   3.735  11.212
 2374WAT     H121073   4.968   3.655  11.246
 2374WAT     H221074   4.957   3.755  11.133
 2375WAT      O21075   4.908   5.557  11.823
 2375WAT     H121076   4.864   5.639  11.845
 2375WAT     H221077   4.847   5.512  11.764
 2376WAT      O21078   4.642   1.959   2.965
 2376WAT     H121079   4.548   1.974   2.955
 2376WAT     H221080   4.662   1.988   3.054
 2377WAT      O21081   4.584   2.598   4.642
 2377WAT     H121082   4.511   2.656   4.621
 2377WAT     H221083   4.542   2.521   4.682
 2378WAT      O21084   2.786   4.574   8.027
 2378WAT     H121085   2.700   4.532   8.035
 2378WAT     H221086   2.848   4.506   8.051
 2379WAT      O21087   5.017   5.476   0.033
 2379WAT     H121088   5.110   5.452   0.039
 2379WAT     H221089   5.003   5.493  -0.060
 2380WAT      O21090   2.242   1.594  11.406
 2380WAT     H121091   2.182   1.554  11.470
 2380WAT     H221092   2.262   1.680  11.442
 2381WAT      O21093   1.550   5.712   2.891
 2381WAT     H121094   1.594   5.773   2.951
 2381WAT     H221095   1.620   5.679   2.835
 2382WAT      O21096   5.919   3.417   0.880
 2382WAT     H121097   5.860   3.348   0.852
 2382WAT     H221098   5.862   3.492   0.897
 2383WAT      O21099   5.752   1.374   2.894
 2383WAT     H121100   5.843   1.348   2.882
 2383WAT     H221101   5.756   1.449   2.954
 2384WAT      O21102   3.360   5.152  11.827
 2384WAT     H121103   3.407   5.226  11.789
 2384WAT     H221104   3.391   5.148  11.917
 2385WAT      O21105   4.311   4.891   3.545
 2385WAT     H121106   4.271   4.838   3.614
 2385WAT     H221107   4.243   4.953   3.520
 2386WAT      O21108   0.202   3.614   4.077
 2386WAT     H121109   0.131   3.663   4.037
 2386WAT     H221110   0.204   3.531   4.030
 2387WAT      O21111   5.888   3.508   8.012
 2387WAT     H121112   5.879   3.528   8.105
 2387WAT     H221113   5.803   3.471   7.987
 2388WAT      O21114   5.656   2.227   3.292
 2388WAT     H121115   5.745   2.216   3.257
 2388WAT     H221116   5.621   2.137   3.296
 2389WAT      O21117   6.118   4.365  11.034
 2389WAT     H121118   6.051   4.414  11.081
 2389WAT     H221119   6.123   4.281  11.080
 2390WAT      O21120   2.770   3.223   8.402
 2390WAT     H121121   2.678   3.208   8.382
 2390WAT     H221122   2.769   3.257   8.492
 2391WAT      O21123   2.045   1.134   3.826
 2391WAT     H121124   2.049   1.083   3.907
 2391WAT     H221125   2.082   1.075   3.759
 2392WAT      O21126   3.994   3.929   9.194
 2392WAT     H121127   4.003   4.024   9.191
 2392WAT     H221128   3.991   3.902   9.102
 2393WAT      O21129   2.575   4.500   9.509
 2393WAT     H121130   2.615   4.587   9.519
 2393WAT     H221131   2.595   4.456   9.591
 2394WAT      O21132   4.278   1.857  11.500
 2394WAT     H121133   4.333   1.933  11.482
 2394WAT     H221134   4.190   1.894  11.514
 2395WAT      O21135   5.928   4.729   2.577
 2395WAT     H121136   5.992   4.734   2.648
 2395WAT     H221137   5.951   4.801   2.519
 2396WAT      O21138   1.954   4.969   0.056
 2396WAT     H121139   1.943   5.040  -0.007
 2396WAT     H221140   2.048   4.952   0.057
 2397WAT      O21141   3.877   5.971   1.293
 2397WAT     H121142   3.853   6.039   1.356
 2397WAT     H221143   3.823   5.990   1.217
 2398WAT      O21144   5.011   4.274   8.149
 2398WAT     H121145   5.017   4.195   8.203
 2398WAT     H221146   4.926   4.267   8.105
 2399WAT      O21147   1.051   1.138  11.061
 2399WAT     H121148   0.976   1.158  11.117
 2399WAT     H221149   1.127   1.151  11.119
 2400WAT      O21150   5.145   0.298   9.596
 2400WAT     H121151   5.174   0.219   9.642
 2400WAT     H221152   5.222   0.327   9.548
 2401WAT      O21153   3.970   4.946   0.109
 2401WAT     H121154   3.972   5.002   0.032
 2401WAT     H221155   4.041   4.883   0.096
 2402WAT      O21156   2.254   5.345   2.224
 2402WAT     H121157   2.240   5.415   2.287
 2402WAT     H221158   2.170   5.335   2.179
 2403WAT      O21159   0.045   5.435   9.557
 2403WAT     H121160   0.027   5.352   9.511
 2403WAT     H221161  -0.025   5.493   9.529
 2404WAT      O21162   6.174   0.443  11.206
 2404WAT     H121163   6.138   0.362  11.242
 2404WAT     H221164   6.134   0.513  11.258
 2405WAT      O21165   0.369   3.488  11.483
 2405WAT     H121166   0.459   3.470  11.508
 2405WAT     H221167   0.329   3.401  11.473
 2406WAT      O21168   1.643   6.120  10.001
 2406WAT     H121169   1.664   6.052   9.937
 2406WAT     H221170   1.721   6.125  10.057
 2407WAT      O21171   0.677   3.820  10.341
 2407WAT     H121172   0.584   3.833  10.321
 2407WAT     H221173   0.678   3.773  10.424
 2408WAT      O21174   3.535   1.333  12.357
 2408WAT     H121175   3.594   1.397  12.318
 2408WAT     H221176   3.465   1.385  12.397
 2409WAT      O21177   2.244   0.793   1.074
 2409WAT     H121178   2.271   0.873   1.029
 2409WAT     H221179   2.186   0.823   1.144
 2410WAT      O21180   1.391   4.722   3.318
 2410WAT     H121181   1.468   4.693   3.268
 2410WAT     H221182   1.317   4.682   3.272
 2411WAT      O21183   6.096   2.369   1.347
 2411WAT     H121184   6.081   2.322   1.429
 2411WAT     H221185   6.148   2.309   1.294
 2412WAT      O21186   1.133   2.235   8.972
 2412WAT     H121187   1.142   2.147   8.936
 2412WAT     H221188   1.174   2.231   9.058
 2413WAT      O21189   1.751   0.512   1.433
 2413WAT     H121190   1.800   0.473   1.505
 2413WAT     H221191   1.770   0.456   1.358
 2414WAT      O21192   5.391   2.032   8.787
 2414WAT     H121193   5.416   1.970   8.855
 2414WAT     H221194   5.401   1.984   8.705
 2415WAT      O21195   1.629   4.491   9.917
 2415WAT     H121196   1.719   4.502   9.948
 2415WAT     H221197   1.582   4.568   9.950
 2416WAT      O21198   1.613   3.831   2.582
 2416WAT     H121199   1.587   3.859   2.670
 2416WAT     H221200   1.707   3.817   2.588
 2417WAT      O21201   0.222   5.636  10.385
 2417WAT     H121202   0.244   5.547  10.357
 2417WAT     H221203   0.193   5.626  10.476
 2418WAT      O21204   0.634   4.183   0.687
 2418WAT     H121205   0.539   4.180   0.699
 2418WAT     H221206   0.653   4.105   0.634
 2419WAT      O21207   5.419   3.078   3.554
 2419WAT     H121208   5.342   3.131   3.532
 2419WAT     H221209   5.397   2.990   3.523
 2420WAT      O21210   4.257   3.173   0.515
 2420WAT     H121211   4.224   3.208   0.598
 2420WAT     H221212   4.180   3.171   0.458
 2421WAT      O21213   2.242   1.042  10.699
 2421WAT     H121214   2.170   1.020  10.759
 2421WAT     H221215   2.202   1.100  10.635
 2422WAT      O21216   2.445   4.965  11.267
 2422WAT     H121217   2.377   4.995  11.328
 2422WAT     H221218   2.493   4.899  11.315
 2423WAT      O21219   0.410   0.773   2.346
 2423WAT     H121220   0.442   0.683   2.340
 2423WAT     H221221   0.329   0.773   2.294
 2424WAT      O21222   5.076   5.712   9.364
 2424WAT     H121223   5.172   5.714   9.366
 2424WAT     H221224   5.050   5.804   9.373
 2425WAT      O21225   5.483   1.660   8.624
 2425WAT     H121226   5.526   1.649   8.708
 2425WAT     H221227   5.390   1.672   8.646
 2426WAT      O21228   0.054   2.032   3.736
 2426WAT     H121229   0.105   1.958   3.702
 2426WAT     H221230   0.053   2.095   3.664
 2427WAT      O21231   0.474   4.768   3.402
 2427WAT     H121232   0.519   4.811   3.474
 2427WAT     H221233   0.450   4.840   3.343
 2428WAT      O21234   3.407   0.205   1.280
 2428WAT     H121235   3.382   0.272   1.343
 2428WAT     H221236   3.402   0.123   1.329
 2429WAT      O21237   3.802   5.947   3.713
 2429WAT     H121238   3.791   6.031   3.758
 2429WAT     H221239   3.794   5.881   3.782
 2430WAT      O21240   0.700   3.802   9.779
 2430WAT     H121241   0.739   3.716   9.796
 2430WAT     H221242   0.770   3.864   9.800
 2431WAT      O21243   3.427   0.071   0.580
 2431WAT     H121244   3.444  -0.021   0.595
 2431WAT     H221245   3.363   0.073   0.509
 2432WAT      O21246   0.883   1.274   9.469
 2432WAT     H121247   0.828   1.257   9.546
 2432WAT     H221248   0.960   1.218   9.482
 2433WAT      O21249   2.630   2.232   2.185
 2433WAT     H121250   2.632   2.137   2.193
 2433WAT     H221251   2.541   2.257   2.211
 2434WAT      O21252   1.844   2.914   1.862
 2434WAT     H121253   1.929   2.900   1.821
 2434WAT     H221254   1.863   2.929   1.955
 2435WAT      O21255   4.464   4.224   4.127
 2435WAT     H121256   4.372   4.245   4.110
 2435WAT     H221257   4.468   4.213   4.222
 2436WAT      O21258   2.031   0.952   8.874
 2436WAT     H121259   2.026   0.863   8.908
 2436WAT     H221260   2.114   0.955   8.826
 2437WAT      O21261   0.053   0.753   2.449
 2437WAT     H121262   0.013   0.828   2.406
 2437WAT     H221263   0.129   0.790   2.494
 2438WAT      O21264   0.865   3.212   9.396
 2438WAT     H121265   0.954   3.207   9.430
 2438WAT     H221266   0.818   3.141   9.440
 2439WAT      O21267   5.308   4.885   4.051
 2439WAT     H121268   5.360   4.886   4.132
 2439WAT     H221269   5.299   4.793   4.030
 2440WAT      O21270   5.883   2.582   2.900
 2440WAT     H121271   5.912   2.667   2.867
 2440WAT     H221272   5.801   2.601   2.946
 2441WAT      O21273   3.145   2.620  12.428
 2441WAT     H121274   3.151   2.540  12.480
 2441WAT     H221275   3.067   2.607  12.373
 2442WAT      O21276   3.478   2.864   3.706
 2442WAT     H121277   3.390   2.840   3.678
 2442WAT     H221278   3.504   2.935   3.646
 2443WAT      O21279   5.622   3.733  11.568
 2443WAT     H121280   5.680   3.783  11.511
 2443WAT     H221281   5.607   3.790  11.643
 2444WAT      O21282   4.019   3.956   7.980
 2444WAT     H121283   3.971   4.033   7.951
 2444WAT     H221284   4.010   3.894   7.907
 2445WAT      O21285   2.190   3.839   3.740
 2445WAT     H121286   2.193   3.919   3.793
 2445WAT     H221287   2.143   3.776   3.795
 2446WAT      O21288   2.526   0.255   8.358
 2446WAT     H121289   2.617   0.284   8.356
 2446WAT     H221290   2.509   0.221   8.270
 2447WAT      O21291   0.573   3.350  10.623
 2447WAT     H121292   0.611   3.396  10.698
 2447WAT     H221293   0.639   3.285  10.598
 2448WAT      O21294   2.313   4.145   9.973
 2448WAT     H121295   2.284   4.227  10.013
 2448WAT     H221296   2.244   4.123   9.911
 2449WAT      O21297   3.107   3.447  11.131
 2449WAT     H121298   3.064   3.515  11.183
 2449WAT     H221299   3.177   3.415  11.187
 2450WAT      O21300   4.322   1.661   9.092
 2450WAT     H121301   4.257   1.591   9.103
 2450WAT     H221302   4.380   1.652   9.168
 2451WAT      O21303   0.160   3.525   9.013
 2451WAT     H121304   0.108   3.490   9.086
 2451WAT     H221305   0.240   3.559   9.055
 2452WAT      O21306   3.513   0.000  10.999
 2452WAT     H121307   3.450   0.012  10.927
 2452WAT     H221308   3.497   0.075  11.057
 2453WAT      O21309   0.231   0.070   1.801
 2453WAT     H121310   0.246  -0.008   1.747
 2453WAT     H221311   0.179   0.128   1.746
 2454WAT      O21312   2.918   0.273  10.955
 2454WAT     H121313   3.012   0.256  10.955
 2454WAT     H221314   2.883   0.212  11.021
 2455WAT      O21315   0.759   5.941  12.027
 2455WAT     H121316   0.708   5.883  12.085
 2455WAT     H221317   0.820   5.986  12.086
 2456WAT      O21318   4.251   3.733   0.281
 2456WAT     H121319   4.282   3.648   0.249
 2456WAT     H221320   4.189   3.710   0.351
 2457WAT      O21321   0.710   0.375   9.815
 2457WAT     H121322   0.694   0.346   9.725
 2457WAT     H221323   0.757   0.458   9.806
 2458WAT      O21324   1.909   4.480   2.882
 2458WAT     H121325   1.846   4.464   2.812
 2458WAT     H221326   1.995   4.472   2.839
 2459WAT      O21327   4.583   3.371   1.231
 2459WAT     H121328   4.522   3.360   1.158
 2459WAT     H221329   4.660   3.319   1.206
 2460WAT      O21330   4.783   4.972   7.793
 2460WAT     H121331   4.784   4.880   7.768
 2460WAT     H221332   4.769   4.971   7.888
 2461WAT      O21333   4.334   3.038  10.114
 2461WAT     H121334   4.411   3.090  10.137
 2461WAT     H221335   4.323   3.050  10.020
 2462WAT      O21336   0.733   0.552   4.569
 2462WAT     H121337   0.787   0.598   4.633
 2462WAT     H221338   0.645   0.553   4.606
 2463WAT      O21339   3.647   0.120   1.166
 2463WAT     H121340   3.568   0.162   1.200
 2463WAT     H221341   3.624   0.027   1.163
 2464WAT      O21342   1.569   1.797  11.238
 2464WAT     H121343   1.613   1.830  11.316
 2464WAT     H221344   1.638   1.756  11.187
 2465WAT      O21345   4.485   2.131   2.128
 2465WAT     H121346   4.556   2.073   2.100
 2465WAT     H221347   4.492   2.207   2.069
 2466WAT      O21348   4.631   3.675   9.515
 2466WAT     H121349   4.577   3.610   9.561
 2466WAT     H221350   4.720   3.659   9.546
 2467WAT      O21351   4.061   1.393   3.511
 2467WAT     H121352   4.129   1.455   3.538
 2467WAT     H221353   4.098   1.307   3.531
 2468WAT      O21354   4.038   3.044   9.726
 2468WAT     H121355   4.095   3.002   9.661
 2468WAT     H221356   4.053   2.993   9.806
 2469WAT      O21357   3.256   0.870  12.370
 2469WAT     H121358   3.274   0.953  12.413
 2469WAT     H221359   3.274   0.887  12.277
 2470WAT      O21360   0.886   3.607   2.863
 2470WAT     H121361   0.920   3.691   2.833
 2470WAT     H221362   0.892   3.550   2.786
 2471WAT      O21363   0.772   0.932  12.578
 2471WAT     H121364   0.833   0.939  12.506
 2471WAT     H221365   0.820   0.886  12.647
 2472WAT      O21366   1.103   5.556   1.003
 2472WAT     H121367   1.022   5.527   0.959
 2472WAT     H221368   1.094   5.651   1.009
 2473WAT      O21369   1.749   2.217   4.716
 2473WAT     H121370   1.720   2.266   4.793
 2473WAT     H221371   1.719   2.127   4.732
 2474WAT      O21372   3.627   2.109  11.653
 2474WAT     H121373   3.714   2.139  11.677
 2474WAT     H221374   3.584   2.090  11.736
 2475WAT      O21375   1.937   5.810   9.354
 2475WAT     H121376   1.993   5.808   9.432
 2475WAT     H221377   1.924   5.718   9.332
 2476WAT      O21378   4.368   1.126   1.313
 2476WAT     H121379   4.285   1.102   1.355
 2476WAT     H221380   4.401   1.198   1.365
 2477WAT      O21381   4.577   4.923   8.320
 2477WAT     H121382   4.607   4.880   8.401
 2477WAT     H221383   4.493   4.880   8.300
 2478WAT      O21384   5.139   5.784  11.647
 2478WAT     H121385   5.224   5.828  11.651
 2478WAT     H221386   5.130   5.759  11.555
 2479WAT      O21387   0.753   1.282   8.235
 2479WAT     H121388   0.713   1.292   8.149
 2479WAT     H221389   0.815   1.355   8.242
 2480WAT      O21390   2.948   6.198   3.571
 2480WAT     H121391   3.020   6.144   3.536
 2480WAT     H221392   2.991   6.268   3.619
 2481WAT      O21393   5.170   3.559   2.797
 2481WAT     H121394   5.188   3.489   2.734
 2481WAT     H221395   5.201   3.524   2.881
 2482WAT      O21396   5.321   2.845  12.463
 2482WAT     H121397   5.342   2.900  12.388
 2482WAT     H221398   5.371   2.764  12.449
 2483WAT      O21399   4.032   1.067   3.430
 2483WAT     H121400   3.960   1.103   3.379
 2483WAT     H221401   4.057   0.987   3.385
 2484WAT      O21402   4.663   0.785  11.617
 2484WAT     H121403   4.698   0.699  11.643
 2484WAT     H221404   4.582   0.765  11.571
 2485WAT      O21405   2.861   3.564   0.124
 2485WAT     H121406   2.874   3.487   0.068
 2485WAT     H221407   2.889   3.638   0.071
 2486WAT      O21408   5.954   1.211  11.817
 2486WAT     H121409   6.045   1.183  11.831
 2486WAT     H221410   5.961   1.297  11.777
 2487WAT      O21411   0.337   5.095  11.147
 2487WAT     H121412   0.295   5.181  11.143
 2487WAT     H221413   0.275   5.036  11.105
 2488WAT      O21414   5.009   3.330   0.415
 2488WAT     H121415   4.989   3.417   0.380
 2488WAT     H221416   5.005   3.342   0.510
 2489WAT      O21417   2.840   1.173   9.821
 2489WAT     H121418   2.842   1.078   9.815
 2489WAT     H221419   2.913   1.195   9.879
 2490WAT      O21420   3.219   2.678   1.333
 2490WAT     H121421   3.240   2.645   1.245
 2490WAT     H221422   3.170   2.759   1.316
 2491WAT      O21423   1.637   5.998   0.469
 2491WAT     H121424   1.601   5.975   0.383
 2491WAT     H221425   1.725   5.962   0.468
 2492WAT      O21426   4.120   4.410   4.357
 2492WAT     H121427   4.196   4.453   4.395
 2492WAT     H221428   4.045   4.456   4.394
 2493WAT      O21429   0.718   5.850  12.489
 2493WAT     H121430   0.719   5.945  12.499
 2493WAT     H221431   0.678   5.817  12.570
 2494WAT      O21432   1.535   6.109   7.476
 2494WAT     H121433   1.596   6.153   7.417
 2494WAT     H221434   1.468   6.174   7.495
 2495WAT      O21435   5.224   5.666   1.620
 2495WAT     H121436   5.262   5.632   1.539
 2495WAT     H221437   5.158   5.600   1.644
 2496WAT      O21438   1.018   5.548   3.532
 2496WAT     H121439   0.959   5.509   3.597
 2496WAT     H221440   1.055   5.624   3.577
 2497WAT      O21441   4.076   2.436   0.592
 2497WAT     H121442   4.126   2.447   0.673
 2497WAT     H221443   4.142   2.431   0.523
 2498WAT      O21444   0.212   0.633   0.112
 2498WAT     H121445   0.272   0.663   0.043
 2498WAT     H221446   0.237   0.684   0.189
 2499WAT      O21447   0.884   4.895   2.578
 2499WAT     H121448   0.847   4.809   2.559
 2499WAT     H221449   0.978   4.885   2.560
 2500WAT      O21450   5.765   3.268   4.601
 2500WAT     H121451   5.837   3.215   4.636
 2500WAT     H221452   5.749   3.232   4.514
 2501WAT      O21453   2.469   6.196  11.366
 2501WAT     H121454   2.524   6.178  11.291
 2501WAT     H221455   2.493   6.285  11.393
 2502WAT      O21456   1.601   2.358   1.663
 2502WAT     H121457   1.536   2.363   1.594
 2502WAT     H221458   1.665   2.294   1.632
 2503WAT      O21459   3.307   1.376   1.215
 2503WAT     H121460   3.357   1.302   1.246
 2503WAT     H221461   3.265   1.412   1.293
 2504WAT      O21462   0.635   1.747   2.107
 2504WAT     H121463   0.550   1.780   2.137
 2504WAT     H221464   0.699   1.799   2.155
 2505WAT      O21465   3.164   1.516   9.908
 2505WAT     H121466   3.183   1.586   9.971
 2505WAT     H221467   3.099   1.554   9.849
 2506WAT      O21468   5.405   4.843   1.790
 2506WAT     H121469   5.377   4.849   1.698
 2506WAT     H221470   5.485   4.896   1.793
 2507WAT      O21471   0.485   1.988   0.773
 2507WAT     H121472   0.403   2.018   0.813
 2507WAT     H221473   0.554   2.035   0.821
 2508WAT      O21474   0.697   2.262   0.188
 2508WAT     H121475   0.679   2.301   0.103
 2508WAT     H221476   0.653   2.177   0.184
 2509WAT      O21477   1.670   2.040   8.231
 2509WAT     H121478   1.650   2.056   8.139
 2509WAT     H221479   1.764   2.055   8.239
 2510WAT      O21480   3.214   4.666   9.634
 2510WAT     H121481   3.286   4.726   9.618
 2510WAT     H221482   3.136   4.722   9.641
 2511WAT      O21483   4.111   6.021  10.236
 2511WAT     H121484   4.105   6.029  10.332
 2511WAT     H221485   4.204   6.006  10.219
 2512WAT      O21486   2.660   2.137   0.428
 2512WAT     H121487   2.657   2.122   0.523
 2512WAT     H221488   2.752   2.160   0.411
 2513WAT      O21489   4.964   3.314   8.223
 2513WAT     H121490   5.023   3.240   8.240
 2513WAT     H221491   4.971   3.329   8.129
 2514WAT      O21492   1.999   1.647  12.323
 2514WAT     H121493   1.994   1.743  12.331
 2514WAT     H221494   1.945   1.627  12.247
 2515WAT      O21495   1.615   3.649   8.712
 2515WAT     H121496   1.564   3.691   8.643
 2515WAT     H221497   1.661   3.721   8.755
 2516WAT      O21498   3.253   3.788  10.146
 2516WAT     H121499   3.256   3.693  10.153
 2516WAT     H221500   3.162   3.810  10.169
 2517WAT      O21501   0.776   1.652   0.327
 2517WAT     H121502   0.795   1.729   0.379
 2517WAT     H221503   0.680   1.648   0.325
 2518WAT      O21504   6.171   1.176   3.124
 2518WAT     H121505   6.213   1.239   3.183
 2518WAT     H221506   6.231   1.101   3.122
 2519WAT      O21507   5.372   5.630  11.805
 2519WAT     H121508   5.286   5.604  11.839
 2519WAT     H221509   5.432   5.613  11.877
 2520WAT      O21510   3.468   3.675   1.122
 2520WAT     H121511   3.433   3.617   1.188
 2520WAT     H221512   3.417   3.656   1.043
 2521WAT      O21513   3.802   3.658  12.481
 2521WAT     H121514   3.815   3.637  12.388
 2521WAT     H221515   3.831   3.580  12.527
 2522WAT      O21516   4.384   0.166  11.889
 2522WAT     H121517   4.324   0.139  11.820
 2522WAT     H221518   4.364   0.109  11.963
 2523WAT      O21519   0.699   0.928   8.828
 2523WAT     H121520   0.685   1.009   8.877
 2523WAT     H221521   0.711   0.956   8.738
 2524WAT      O21522   0.715   5.416  12.327
 2524WAT     H121523   0.715   5.334  12.276
 2524WAT     H221524   0.668   5.394  12.407
 2525WAT      O21525   3.863   3.881   2.653
 2525WAT     H121526   3.784   3.828   2.639
 2525WAT     H221527   3.832   3.958   2.699
 2526WAT      O21528   1.532   3.955   9.446
 2526WAT     H121529   1.445   3.977   9.412
 2526WAT     H221530   1.542   3.862   9.427
 2527WAT      O21531   5.632   2.676   0.526
 2527WAT     H121532   5.722   2.705   0.515
 2527WAT     H221533   5.582   2.725   0.461
 2528WAT      O21534   4.144   5.467   0.533
 2528WAT     H121535   4.145   5.385   0.583
 2528WAT     H221536   4.157   5.535   0.599
 2529WAT      O21537   2.788   2.556   2.077
 2529WAT     H121538   2.699   2.541   2.109
 2529WAT     H221539   2.834   2.595   2.151
 2530WAT      O21540   5.818   2.566   2.228
 2530WAT     H121541   5.736   2.553   2.179
 2530WAT     H221542   5.886   2.570   2.160
 2531WAT      O21543   1.388   2.989   1.768
 2531WAT     H121544   1.368   3.071   1.814
 2531WAT     H221545   1.360   3.005   1.678
 2532WAT      O21546   5.496   4.048  10.756
 2532WAT     H121547   5.508   4.010  10.669
 2532WAT     H221548   5.507   4.143  10.743
 2533WAT      O21549   5.012   1.738   2.834
 2533WAT     H121550   5.004   1.832   2.819
 2533WAT     H221551   5.077   1.730   2.904
 2534WAT      O21552   4.355   2.424  11.071
 2534WAT     H121553   4.327   2.416  10.980
 2534WAT     H221554   4.357   2.334  11.104
 2535WAT      O21555   0.140   6.081   7.808
 2535WAT     H121556   0.149   5.994   7.847
 2535WAT     H221557   0.185   6.139   7.870
 2536WAT      O21558   3.366   1.812   0.310
 2536WAT     H121559   3.379   1.776   0.222
 2536WAT     H221560   3.455   1.832   0.341
 2537WAT      O21561   4.233   2.449   3.042
 2537WAT     H121562   4.143   2.481   3.034
 2537WAT     H221563   4.281   2.492   2.971
 2538WAT      O21564   1.038   4.117   3.222
 2538WAT     H121565   1.125   4.154   3.237
 2538WAT     H221566   1.026   4.056   3.295
 2539WAT      O21567   3.152   6.080  12.263
 2539WAT     H121568   3.178   6.129  12.341
 2539WAT     H221569   3.058   6.094  12.257
 2540WAT      O21570   0.283   0.120  10.220
 2540WAT     H121571   0.187   0.111  10.219
 2540WAT     H221572   0.314   0.037  10.183
 2541WAT      O21573   5.792   5.205  11.627
 2541WAT     H121574   5.850   5.162  11.689
 2541WAT     H221575   5.704   5.186  11.659
 2542WAT      O21576   0.067   2.445   4.456
 2542WAT     H121577   0.101   2.535   4.456
 2542WAT     H221578   0.111   2.403   4.531
 2543WAT      O21579   1.797   2.144  10.359
 2543WAT     H121580   1.828   2.054  10.355
 2543WAT     H221581   1.701   2.137  10.351
 2544WAT      O21582   3.739   2.105   3.351
 2544WAT     H121583   3.753   2.181   3.295
 2544WAT     H221584   3.820   2.097   3.401
 2545WAT      O21585   5.839   1.877   9.987
 2545WAT     H121586   5.911   1.917   9.938
 2545WAT     H221587   5.762   1.891   9.931
 2546WAT      O21588   1.386   3.561   1.529
 2546WAT     H121589   1.413   3.500   1.598
 2546WAT     H221590   1.447   3.634   1.537
 2547WAT      O21591   3.752   2.059   1.885
 2547WAT     H121592   3.839   2.087   1.856
 2547WAT     H221593   3.692   2.108   1.829
 2548WAT      O21594   0.992   0.356   1.721
 2548WAT     H121595   0.925   0.354   1.789
 2548WAT     H221596   0.966   0.288   1.659
 2549WAT      O21597   0.397   4.746   9.583
 2549WAT     H121598   0.379   4.652   9.575
 2549WAT     H221599   0.364   4.783   9.501
 2550WAT      O21600   0.259   0.175   0.457
 2550WAT     H121601   0.229   0.260   0.490
 2550WAT     H221602   0.305   0.135   0.531
 2551WAT      O21603   5.234   2.171   8.224
 2551WAT     H121604   5.255   2.118   8.301
 2551WAT     H221605   5.222   2.260   8.259
 2552WAT      O21606   4.560   0.215   8.335
 2552WAT     H121607   4.470   0.246   8.326
 2552WAT     H221608   4.612   0.280   8.288
 2553WAT      O21609   0.536   1.922  12.586
 2553WAT     H121610   0.597   1.862  12.629
 2553WAT     H221611   0.500   1.975  12.657
 2554WAT      O21612   1.150   2.713   9.056
 2554WAT     H121613   1.242   2.701   9.033
 2554WAT     H221614   1.104   2.644   9.009
 2555WAT      O21615   4.515   0.947   1.552
 2555WAT     H121616   4.603   0.965   1.583
 2555WAT     H221617   4.526   0.890   1.477
 2556WAT      O21618   1.429   5.656   9.245
 2556WAT     H121619   1.513   5.664   9.290
 2556WAT     H221620   1.364   5.652   9.316
 2557WAT      O21621   3.685   3.168   0.380
 2557WAT     H121622   3.732   3.144   0.459
 2557WAT     H221623   3.696   3.094   0.321
 2558WAT      O21624   0.234   0.981   0.439
 2558WAT     H121625   0.272   0.948   0.520
 2558WAT     H221626   0.241   1.076   0.447
 2559WAT      O21627   2.862   0.330  10.456
 2559WAT     H121628   2.838   0.262  10.394
 2559WAT     H221629   2.933   0.377  10.413
 2560WAT      O21630   2.727   2.984   4.163
 2560WAT     H121631   2.779   3.064   4.173
 2560WAT     H221632   2.644   3.003   4.206
 2561WAT      O21633   1.339   6.092  12.062
 2561WAT     H121634   1.324   5.997  12.060
 2561WAT     H221635   1.429   6.103  12.031
 2562WAT      O21636   4.257   0.635   1.315
 2562WAT     H121637   4.333   0.580   1.297
 2562WAT     H221638   4.182   0.584   1.284
 2563WAT      O21639   0.132   4.066   9.784
 2563WAT     H121640   0.115   4.040   9.875
 2563WAT     H221641   0.147   3.984   9.738
 2564WAT      O21642   0.955   4.213   9.519
 2564WAT     H121643   0.999   4.288   9.478
 2564WAT     H221644   0.888   4.187   9.455
 2565WAT      O21645   5.432   0.104   8.660
 2565WAT     H121646   5.359   0.051   8.691
 2565WAT     H221647   5.438   0.176   8.723
 2566WAT      O21648   5.125   3.931  12.390
 2566WAT     H121649   5.195   3.901  12.446
 2566WAT     H221650   5.169   3.981  12.321
 2567WAT      O21651   0.110   4.100   0.662
 2567WAT     H121652   0.122   4.028   0.600
 2567WAT     H221653   0.069   4.059   0.738
 2568WAT      O21654   4.549   3.504  11.527
 2568WAT     H121655   4.551   3.418  11.486
 2568WAT     H221656   4.569   3.565  11.455
 2569WAT      O21657   5.032   4.959   0.942
 2569WAT     H121658   4.950   4.919   0.913
 2569WAT     H221659   5.013   5.053   0.947
 2570WAT      O21660   4.595   3.483   0.872
 2570WAT     H121661   4.522   3.484   0.933
 2570WAT     H221662   4.575   3.412   0.811
 2571WAT      O21663   4.761   5.498   0.585
 2571WAT     H121664   4.785   5.416   0.629
 2571WAT     H221665   4.703   5.470   0.513
 2572WAT      O21666   4.887   1.358   8.905
 2572WAT     H121667   4.913   1.412   8.831
 2572WAT     H221668   4.817   1.407   8.948
 2573WAT      O21669   5.389   1.664   8.015
 2573WAT     H121670   5.393   1.631   8.105
 2573WAT     H221671   5.416   1.590   7.961
 2574WAT      O21672   1.165   1.697   1.899
 2574WAT     H121673   1.078   1.670   1.928
 2574WAT     H221674   1.174   1.786   1.933
 2575WAT      O21675   4.808   1.273   9.990
 2575WAT     H121676   4.863   1.216  10.043
 2575WAT     H221677   4.750   1.316  10.053
 2576WAT      O21678   4.530   1.315   8.068
 2576WAT     H121679   4.571   1.320   7.982
 2576WAT     H221680   4.466   1.244   8.060
 2577WAT      O21681   0.050   1.499   9.693
 2577WAT     H121682   0.047   1.513   9.787
 2577WAT     H221683  -0.020   1.437   9.675
 2578WAT      O21684   1.037   3.037   4.408
 2578WAT     H121685   1.059   3.016   4.499
 2578WAT     H221686   0.947   3.005   4.398
 2579WAT      O21687   3.094   0.502   9.315
 2579WAT     H121688   3.143   0.422   9.333
 2579WAT     H221689   3.139   0.569   9.368
 2580WAT      O21690   2.251   3.626  11.907
 2580WAT     H121691   2.200   3.601  11.984
 2580WAT     H221692   2.212   3.576  11.835
 2581WAT      O21693   3.876   1.715  10.139
 2581WAT     H121694   3.916   1.799  10.116
 2581WAT     H221695   3.895   1.658  10.065
 2582WAT      O21696   4.779   1.111   8.845
 2582WAT     H121697   4.692   1.150   8.855
 2582WAT     H221698   4.838   1.171   8.890
 2583WAT      O21699   3.702   0.543   4.045
 2583WAT     H121700   3.621   0.505   4.079
 2583WAT     H221701   3.750   0.468   4.010
 2584WAT      O21702   4.429   5.250  10.798
 2584WAT     H121703   4.414   5.344  10.786
 2584WAT     H221704   4.355   5.209  10.753
 2585WAT      O21705   0.469   1.118   3.369
 2585WAT     H121706   0.409   1.178   3.415
 2585WAT     H221707   0.494   1.165   3.290
 2586WAT      O21708  -0.002   2.659  12.188
 2586WAT     H121709   0.007   2.743  12.143
 2586WAT     H221710   0.058   2.664  12.262
 2587WAT      O21711   4.970   0.523   2.949
 2587WAT     H121712   5.021   0.492   2.874
 2587WAT     H221713   4.880   0.494   2.931
 2588WAT      O21714   1.734   5.543  11.265
 2588WAT     H121715   1.758   5.536  11.357
 2588WAT     H221716   1.640   5.561  11.266
 2589WAT      O21717   4.551   3.922  12.568
 2589WAT     H121718   4.546   3.831  12.536
 2589WAT     H221719   4.500   3.922  12.649
 2590WAT      O21720   2.245   1.257  11.931
 2590WAT     H121721   2.300   1.251  12.009
 2590WAT     H221722   2.188   1.332  11.947
 2591WAT      O21723   2.751   1.392   4.063
 2591WAT     H121724   2.674   1.381   4.118
 2591WAT     H221725   2.806   1.455   4.111
 2592WAT      O21726   0.547   4.907  12.157
 2592WAT     H121727   0.536   4.977  12.092
 2592WAT     H221728   0.567   4.829  12.105
 2593WAT      O21729   5.541   2.617  12.503
 2593WAT     H121730   5.471   2.576  12.554
 2593WAT     H221731   5.620   2.601  12.554
 2594WAT      O21732   5.961   0.982   3.649
 2594WAT     H121733   5.889   1.002   3.588
 2594WAT     H221734   6.026   0.937   3.595
 2595WAT      O21735   3.648   1.140   9.599
 2595WAT     H121736   3.614   1.170   9.515
 2595WAT     H221737   3.709   1.208   9.626
 2596WAT      O21738   0.678   5.201   9.583
 2596WAT     H121739   0.585   5.189   9.604
 2596WAT     H221740   0.697   5.291   9.612
 2597WAT      O21741   1.985   3.377  11.049
 2597WAT     H121742   1.898   3.415  11.049
 2597WAT     H221743   2.006   3.366  10.956
 2598WAT      O21744   1.766   2.176   3.019
 2598WAT     H121745   1.740   2.193   2.928
 2598WAT     H221746   1.738   2.254   3.067
 2599WAT      O21747   5.186   5.938   2.340
 2599WAT     H121748   5.281   5.937   2.344
 2599WAT     H221749   5.157   5.921   2.430
 2600WAT      O21750   2.502   6.162  10.770
 2600WAT     H121751   2.449   6.190  10.696
 2600WAT     H221752   2.440   6.120  10.830
 2601WAT      O21753   0.055   3.930   8.549
 2601WAT     H121754   0.047   4.020   8.516
 2601WAT     H221755  -0.023   3.917   8.602
 2602WAT      O21756   1.869   5.287  11.176
 2602WAT     H121757   1.907   5.372  11.196
 2602WAT     H221758   1.875   5.238  11.258
 2603WAT      O21759   1.366   0.477  12.600
 2603WAT     H121760   1.458   0.474  12.624
 2603WAT     H221761   1.324   0.526  12.671
 2604WAT      O21762   0.356   2.726   9.268
 2604WAT     H121763   0.387   2.815   9.252
 2604WAT     H221764   0.261   2.735   9.281
 2605WAT      O21765   5.520   2.451   0.629
 2605WAT     H121766   5.575   2.527   0.610
 2605WAT     H221767   5.518   2.402   0.546
 2606WAT      O21768   2.845   3.431  11.768
 2606WAT     H121769   2.863   3.338  11.779
 2606WAT     H221770   2.754   3.442  11.794
 2607WAT      O21771   1.036   1.181   2.404
 2607WAT     H121772   1.076   1.116   2.461
 2607WAT     H221773   1.082   1.263   2.425
 2608WAT      O21774   1.337   2.859   2.926
 2608WAT     H121775   1.305   2.788   2.870
 2608WAT     H221776   1.412   2.895   2.878
 2609WAT      O21777   0.277   2.810  11.566
 2609WAT     H121778   0.292   2.719  11.592
 2609WAT     H221779   0.263   2.806  11.471
 2610WAT      O21780   5.187   4.677   8.463
 2610WAT     H121781   5.230   4.676   8.377
 2610WAT     H221782   5.202   4.766   8.496
 2611WAT      O21783   2.990   1.681   2.920
 2611WAT     H121784   2.980   1.707   2.828
 2611WAT     H221785   3.081   1.699   2.940
 2612WAT      O21786   2.186   4.350  11.847
 2612WAT     H121787   2.253   4.407  11.809
 2612WAT     H221788   2.105   4.401  11.842
 2613WAT      O21789   3.349   2.900   9.984
 2613WAT     H121790   3.440   2.923   9.966
 2613WAT     H221791   3.343   2.807   9.960
 2614WAT      O21792   4.393   5.983   8.160
 2614WAT     H121793   4.373   5.900   8.204
 2614WAT     H221794   4.319   5.997   8.101
 2615WAT      O21795   3.882   4.174   1.491
 2615WAT     H121796   3.879   4.078   1.494
 2615WAT     H221797   3.973   4.196   1.509
 2616WAT      O21798   5.244   5.459   0.978
 2616WAT     H121799   5.302   5.523   1.021
 2616WAT     H221800   5.214   5.504   0.899
 2617WAT      O21801   5.169   1.564   2.219
 2617WAT     H121802   5.234   1.631   2.238
 2617WAT     H221803   5.196   1.489   2.271
 2618WAT      O21804   1.786   1.388  10.518
 2618WAT     H121805   1.824   1.301  10.525
 2618WAT     H221806   1.731   1.396  10.596
 2619WAT      O21807   5.531   5.979  10.910
 2619WAT     H121808   5.520   5.891  10.946
 2619WAT     H221809   5.541   6.036  10.986
 2620WAT      O21810   1.808   1.201   3.704
 2620WAT     H121811   1.890   1.176   3.746
 2620WAT     H221812   1.742   1.148   3.749
 2621WAT      O21813   2.833   5.972  11.474
 2621WAT     H121814   2.910   5.916  11.462
 2621WAT     H221815   2.852   6.021  11.554
 2622WAT      O21816   2.203   0.364   8.447
 2622WAT     H121817   2.273   0.303   8.422
 2622WAT     H221818   2.174   0.332   8.533
 2623WAT      O21819   1.717   2.511   3.434
 2623WAT     H121820   1.690   2.596   3.466
 2623WAT     H221821   1.810   2.504   3.457
 2624WAT      O21822   2.852   2.323  11.890
 2624WAT     H121823   2.851   2.272  11.971
 2624WAT     H221824   2.923   2.285  11.838
 2625WAT      O21825   5.100   0.759   8.409
 2625WAT     H121826   5.017   0.711   8.411
 2625WAT     H221827   5.116   0.775   8.316
 2626WAT      O21828   6.260   1.063   9.742
 2626WAT     H121829   6.204   1.015   9.680
 2626WAT     H221830   6.228   1.153   9.739
 2627WAT      O21831   3.833   3.361  10.253
 2627WAT     H121832   3.895   3.434  10.251
 2627WAT     H221833   3.762   3.392  10.309
 2628WAT      O21834   1.474   2.409   9.943
 2628WAT     H121835   1.478   2.314   9.938
 2628WAT     H221836   1.468   2.428  10.037
 2629WAT      O21837   0.908   0.221   5.137
 2629WAT     H121838   0.987   0.186   5.095
 2629WAT     H221839   0.937   0.303   5.178
 2630WAT      O21840   2.357   1.995   9.333
 2630WAT     H121841   2.427   1.949   9.378
 2630WAT     H221842   2.297   1.926   9.304
 2631WAT      O21843   5.795   5.286   4.179
 2631WAT     H121844   5.740   5.315   4.251
 2631WAT     H221845   5.879   5.265   4.220
 2632WAT      O21846   4.800   5.038  12.011
 2632WAT     H121847   4.875   5.094  12.029
 2632WAT     H221848   4.797   5.031  11.915
 2633WAT      O21849   1.933   4.729   0.229
 2633WAT     H121850   1.858   4.692   0.183
 2633WAT     H221851   2.003   4.730   0.163
 2634WAT      O21852   2.456   1.542   1.079
 2634WAT     H121853   2.528   1.559   1.018
 2634WAT     H221854   2.382   1.590   1.042
 2635WAT      O21855   5.359   3.073  10.957
 2635WAT     H121856   5.361   3.040  11.047
 2635WAT     H221857   5.334   2.998  10.904
 2636WAT      O21858   0.071   0.028  10.480
 2636WAT     H121859   0.124   0.089  10.429
 2636WAT     H221860  -0.004   0.008  10.424
 2637WAT      O21861   5.233   2.616   3.466
 2637WAT     H121862   5.261   2.569   3.387
 2637WAT     H221863   5.282   2.698   3.463
 2638WAT      O21864   0.373   0.460   0.843
 2638WAT     H121865   0.291   0.430   0.882
 2638WAT     H221866   0.367   0.434   0.751
 2639WAT      O21867   4.906   4.371   0.984
 2639WAT     H121868   4.976   4.309   0.962
 2639WAT     H221869   4.827   4.333   0.945
 2640WAT      O21870   5.478   5.871  10.487
 2640WAT     H121871   5.451   5.943  10.545
 2640WAT     H221872   5.496   5.913  10.403
 2641WAT      O21873  -0.012   0.427   3.119
 2641WAT     H121874   0.060   0.365   3.131
 2641WAT     H221875  -0.027   0.464   3.206
 2642WAT      O21876   1.492   0.920   1.650
 2642WAT     H121877   1.456   0.928   1.562
 2642WAT     H221878   1.467   1.002   1.693
 2643WAT      O21879   5.404   5.177   1.566
 2643WAT     H121880   5.487   5.175   1.612
 2643WAT     H221881   5.343   5.218   1.628
 2644WAT      O21882   3.809   0.153   1.643
 2644WAT     H121883   3.745   0.184   1.707
 2644WAT     H221884   3.891   0.146   1.692
 2645WAT      O21885   4.227   5.922   0.466
 2645WAT     H121886   4.268   5.902   0.382
 2645WAT     H221887   4.282   5.992   0.504
 2646WAT      O21888   4.914   1.129   0.726
 2646WAT     H121889   4.988   1.076   0.758
 2646WAT     H221890   4.952   1.215   0.709
 2647WAT      O21891   5.815   4.873   2.886
 2647WAT     H121892   5.893   4.927   2.895
 2647WAT     H221893   5.748   4.919   2.937
 2648WAT      O21894   4.080   1.943  12.503
 2648WAT     H121895   4.124   1.975  12.424
 2648WAT     H221896   4.075   1.848  12.490
 2649WAT      O21897   2.257   4.580  11.428
 2649WAT     H121898   2.264   4.603  11.335
 2649WAT     H221899   2.172   4.538  11.436
 2650WAT      O21900   0.514   5.511   3.059
 2650WAT     H121901   0.445   5.552   3.007
 2650WAT     H221902   0.590   5.568   3.046
 2651WAT      O21903   4.885   2.783   9.736
 2651WAT     H121904   4.890   2.752   9.646
 2651WAT     H221905   4.952   2.851   9.742
 2652WAT      O21906   1.728   3.401  10.982
 2652WAT     H121907   1.671   3.363  10.915
 2652WAT     H221908   1.717   3.344  11.058
 2653WAT      O21909   3.821   0.644  10.422
 2653WAT     H121910   3.730   0.642  10.453
 2653WAT     H221911   3.820   0.710  10.352
 2654WAT      O21912   0.684   4.991   0.334
 2654WAT     H121913   0.739   4.913   0.340
 2654WAT     H221914   0.659   5.009   0.425
 2655WAT      O21915   1.295   4.903   2.311
 2655WAT     H121916   1.385   4.923   2.285
 2655WAT     H221917   1.302   4.820   2.359
 2656WAT      O21918   5.718   5.835  12.453
 2656WAT     H121919   5.787   5.817  12.389
 2656WAT     H221920   5.653   5.886  12.405
 2657WAT      O21921   0.184   3.591  12.120
 2657WAT     H121922   0.257   3.647  12.145
 2657WAT     H221923   0.111   3.652  12.108
 2658WAT      O21924   3.152   1.955   9.793
 2658WAT     H121925   3.242   1.945   9.822
 2658WAT     H221926   3.158   1.980   9.701
 2659WAT      O21927   0.617   2.583   2.536
 2659WAT     H121928   0.618   2.597   2.630
 2659WAT     H221929   0.596   2.669   2.499
 2660WAT      O21930   4.620   3.778   8.076
 2660WAT     H121931   4.682   3.776   8.002
 2660WAT     H221932   4.639   3.698   8.125
 2661WAT      O21933   5.664   1.862   7.954
 2661WAT     H121934   5.579   1.823   7.930
 2661WAT     H221935   5.724   1.832   7.885
 2662WAT      O21936   0.649   1.276  12.072
 2662WAT     H121937   0.668   1.316  11.987
 2662WAT     H221938   0.573   1.220  12.056
 2663WAT      O21939   0.544   3.996  12.216
 2663WAT     H121940   0.575   4.085  12.232
 2663WAT     H221941   0.559   3.982  12.123
 2664WAT      O21942   3.891   6.137   7.456
 2664WAT     H121943   3.837   6.207   7.493
 2664WAT     H221944   3.936   6.099   7.531
 2665WAT      O21945   3.079   3.362  12.279
 2665WAT     H121946   3.127   3.295  12.328
 2665WAT     H221947   3.119   3.361  12.192
 2666WAT      O21948   5.719   0.406   0.449
 2666WAT     H121949   5.805   0.404   0.407
 2666WAT     H221950   5.671   0.475   0.403
 2667WAT      O21951   4.839   3.043   9.297
 2667WAT     H121952   4.827   3.122   9.244
 2667WAT     H221953   4.925   3.054   9.338
 2668WAT      O21954   3.890   5.710  11.843
 2668WAT     H121955   3.891   5.783  11.781
 2668WAT     H221956   3.927   5.745  11.923
 2669WAT      O21957   5.519   0.458   3.439
 2669WAT     H121958   5.591   0.502   3.484
 2669WAT     H221959   5.502   0.513   3.363
 2670WAT      O21960   5.397   5.361  11.469
 2670WAT     H121961   5.303   5.376  11.462
 2670WAT     H221962   5.432   5.444  11.501
 2671WAT      O21963   5.376   0.716   3.260
 2671WAT     H121964   5.385   0.791   3.319
 2671WAT     H221965   5.343   0.754   3.178
 2672WAT      O21966   2.429   4.596  12.168
 2672WAT     H121967   2.374   4.557  12.235
 2672WAT     H221968   2.415   4.541  12.091
 2673WAT      O21969   4.448   0.044   9.947
 2673WAT     H121970   4.388   0.048  10.022
 2673WAT     H221971   4.392   0.024   9.872
 2674WAT      O21972   6.111   0.217  10.373
 2674WAT     H121973   6.039   0.237  10.433
 2674WAT     H221974   6.169   0.292  10.380
 2675WAT      O21975   1.761   3.736  12.276
 2675WAT     H121976   1.807   3.653  12.273
 2675WAT     H221977   1.814   3.795  12.222
 2676WAT      O21978   0.960   0.140  10.582
 2676WAT     H121979   0.891   0.140  10.516
 2676WAT     H221980   1.038   0.172  10.536
 2677WAT      O21981   1.744   0.824   1.644
 2677WAT     H121982   1.650   0.842   1.653
 2677WAT     H221983   1.780   0.904   1.606
 2678WAT      O21984   5.628   4.161   7.776
 2678WAT     H121985   5.671   4.192   7.696
 2678WAT     H221986   5.608   4.069   7.758
 2679WAT      O21987   0.862   1.334   3.374
 2679WAT     H121988   0.860   1.390   3.452
 2679WAT     H221989   0.941   1.360   3.328
 2680WAT      O21990   2.374   0.582   8.619
 2680WAT     H121991   2.458   0.607   8.657
 2680WAT     H221992   2.397   0.535   8.538
 2681WAT      O21993   0.751   6.111   9.733
 2681WAT     H121994   0.687   6.181   9.733
 2681WAT     H221995   0.700   6.031   9.744
 2682WAT      O21996   1.366   0.158   9.834
 2682WAT     H121997   1.407   0.075   9.812
 2682WAT     H221998   1.431   0.204   9.887
 2683WAT      O21999   5.183   6.044   0.762
 2683WAT     H122000   5.256   5.991   0.794
 2683WAT     H222001   5.144   6.082   0.840
 2684WAT      O22002   4.009   2.615  10.591
 2684WAT     H122003   3.962   2.656  10.518
 2684WAT     H222004   3.983   2.667  10.667
 2685WAT      O22005   3.564   3.803  11.918
 2685WAT     H122006   3.588   3.886  11.959
 2685WAT     H222007   3.634   3.785  11.856
 2686WAT      O22008   4.009   5.542   9.228
 2686WAT     H122009   4.073   5.572   9.293
 2686WAT     H222010   3.992   5.619   9.173
 2687WAT      O22011   2.042   5.339  11.895
 2687WAT     H122012   2.073   5.341  11.805
 2687WAT     H222013   1.985   5.262  11.899
 2688WAT      O22014   1.055   5.356   8.948
 2688WAT     H122015   0.990   5.420   8.918
 2688WAT     H222016   1.083   5.389   9.033
 2689WAT      O22017   2.727   5.388  12.030
 2689WAT     H122018   2.705   5.475  12.063
 2689WAT     H222019   2.648   5.336  12.046
 2690WAT      O22020   5.676   2.329  10.088
 2690WAT     H122021   5.679   2.322   9.993
 2690WAT     H222022   5.691   2.240  10.119
 2691WAT      O22023   0.117   0.067  12.449
 2691WAT     H122024   0.098   0.035  12.361
 2691WAT     H222025   0.048   0.030  12.504
 2692WAT      O22026   2.885   5.308   0.150
 2692WAT     H122027   2.920   5.242   0.091
 2692WAT     H222028   2.945   5.306   0.225
 2693WAT      O22029   2.393   5.432   8.012
 2693WAT     H122030   2.453   5.505   8.001
 2693WAT     H222031   2.333   5.459   8.081
 2694WAT      O22032   4.474   3.865  11.944
 2694WAT     H122033   4.542   3.927  11.972
 2694WAT     H222034   4.489   3.854  11.850
 2695WAT      O22035   1.355   4.390  10.370
 2695WAT     H122036   1.443   4.353  10.375
 2695WAT     H222037   1.363   4.467  10.315
 2696WAT      O22038   4.810   1.198   1.420
 2696WAT     H122039   4.891   1.148   1.422
 2696WAT     H222040   4.804   1.233   1.331
 2697WAT      O22041   2.626   1.751   3.631
 2697WAT     H122042   2.637   1.807   3.707
 2697WAT     H222043   2.565   1.799   3.575
 2698WAT      O22044   2.199   0.021   8.474
 2698WAT     H122045   2.193   0.053   8.384
 2698WAT     H222046   2.110   0.027   8.508
 2699WAT      O22047   2.624   0.980   3.037
 2699WAT     H122048   2.674   1.027   3.103
 2699WAT     H222049   2.602   0.897   3.077
 2700WAT      O22050   3.822   3.675   1.871
 2700WAT     H122051   3.848   3.623   1.794
 2700WAT     H222052   3.804   3.762   1.836
 2701WAT      O22053   2.223   1.010  11.568
 2701WAT     H122054   2.248   1.031  11.478
 2701WAT     H222055   2.135   0.973  11.559
 2702WAT      O22056   5.480   4.080   0.736
 2702WAT     H122057   5.425   4.027   0.678
 2702WAT     H222058   5.430   4.085   0.818
 2703WAT      O22059   5.951   4.759  12.320
 2703WAT     H122060   5.969   4.794  12.407
 2703WAT     H222061   5.969   4.666  12.327
 2704WAT      O22062   0.872   1.063  11.305
 2704WAT     H122063   0.824   1.139  11.336
 2704WAT     H222064   0.946   1.055  11.365
 2705WAT      O22065   4.313   3.140   9.859
 2705WAT     H122066   4.381   3.078   9.832
 2705WAT     H222067   4.303   3.200   9.785
 2706WAT      O22068   1.152   2.347   8.605
 2706WAT     H122069   1.245   2.346   8.629
 2706WAT     H222070   1.129   2.255   8.594
 2707WAT      O22071   2.593   5.557  11.331
 2707WAT     H122072   2.677   5.593  11.303
 2707WAT     H222073   2.564   5.616  11.401
 2708WAT      O22074   2.942   3.548   2.158
 2708WAT     H122075   3.033   3.561   2.133
 2708WAT     H222076   2.912   3.474   2.105
 2709WAT      O22077   5.112   0.493   0.478
 2709WAT     H122078   5.048   0.451   0.420
 2709WAT     H222079   5.066   0.570   0.511
 2710WAT      O22080   1.072   3.950   1.394
 2710WAT     H122081   0.990   3.954   1.443
 2710WAT     H222082   1.091   3.856   1.387
 2711WAT      O22083   5.795   6.071   9.379
 2711WAT     H122084   5.721   6.011   9.389
 2711WAT     H222085   5.825   6.058   9.289
 2712WAT      O22086   0.853   1.977   3.547
 2712WAT     H122087   0.858   2.064   3.508
 2712WAT     H222088   0.890   1.988   3.635
 2713WAT      O22089   5.441   1.844  12.556
 2713WAT     H122090   5.383   1.805  12.491
 2713WAT     H222091   5.385   1.902  12.607
 2714WAT      O22092   3.540   3.077   9.048
 2714WAT     H122093   3.558   2.985   9.066
 2714WAT     H222094   3.626   3.115   9.030
 2715WAT      O22095   3.509   4.605  11.485
 2715WAT     H122096   3.523   4.599  11.579
 2715WAT     H222097   3.595   4.588  11.446
 2716WAT      O22098   3.491   5.896   4.183
 2716WAT     H122099   3.457   5.985   4.196
 2716WAT     H222100   3.439   5.842   4.242
 2717WAT      O22101   4.284   1.156   8.683
 2717WAT     H122102   4.253   1.105   8.608
 2717WAT     H222103   4.214   1.219   8.700
 2718WAT      O22104   4.414   3.353   3.427
 2718WAT     H122105   4.462   3.386   3.351
 2718WAT     H222106   4.356   3.286   3.392
 2719WAT      O22107   3.980   6.010   1.774
 2719WAT     H122108   3.890   6.024   1.743
 2719WAT     H222109   3.985   5.916   1.789
 2720WAT      O22110   3.456   2.422  11.856
 2720WAT     H122111   3.537   2.410  11.905
 2720WAT     H222112   3.483   2.463  11.774
 2721WAT      O22113   6.114   5.361   0.643
 2721WAT     H122114   6.030   5.386   0.682
 2721WAT     H222115   6.160   5.314   0.712
 2722WAT      O22116   5.634   4.118   3.377
 2722WAT     H122117   5.601   4.066   3.450
 2722WAT     H222118   5.597   4.205   3.390
 2723WAT      O22119   2.559   2.971  10.640
 2723WAT     H122120   2.487   3.002  10.695
 2723WAT     H222121   2.516   2.926  10.567
 2724WAT      O22122   3.085   3.737   9.805
 2724WAT     H122123   3.169   3.694   9.820
 2724WAT     H222124   3.096   3.825   9.843
 2725WAT      O22125   2.037   0.839   2.246
 2725WAT     H122126   2.039   0.772   2.314
 2725WAT     H222127   2.048   0.791   2.164
 2726WAT      O22128   5.694   3.870   9.294
 2726WAT     H122129   5.604   3.838   9.308
 2726WAT     H222130   5.750   3.801   9.328
 2727WAT      O22131   0.921   0.156   1.523
 2727WAT     H122132   0.832   0.119   1.523
 2727WAT     H222133   0.937   0.176   1.430
 2728WAT      O22134   0.319   1.205   1.425
 2728WAT     H122135   0.300   1.284   1.475
 2728WAT     H222136   0.235   1.182   1.385
 2729WAT      O22137   5.747   0.545   3.561
 2729WAT     H122138   5.792   0.465   3.590
 2729WAT     H222139   5.789   0.615   3.611
 2730WAT      O22140   2.549   5.384  10.673
 2730WAT     H122141   2.514   5.366  10.760
 2730WAT     H222142   2.530   5.477  10.658
 2731WAT      O22143   3.294   1.043  10.821
 2731WAT     H122144   3.245   0.965  10.795
 2731WAT     H222145   3.363   1.011  10.878
 2732WAT      O22146   1.824   4.813   3.138
 2732WAT     H122147   1.765   4.738   3.140
 2732WAT     H222148   1.816   4.851   3.226
 2733WAT      O22149   2.510   3.136   3.021
 2733WAT     H122150   2.524   3.120   3.114
 2733WAT     H222151   2.415   3.130   3.010
 2734WAT      O22152   1.702   5.493  12.139
 2734WAT     H122153   1.691   5.400  12.120
 2734WAT     H222154   1.669   5.537  12.060
 2735WAT      O22155   1.486   2.521   2.018
 2735WAT     H122156   1.557   2.555   1.964
 2735WAT     H222157   1.469   2.590   2.082
 2736WAT      O22158   0.919   5.599   2.251
 2736WAT     H122159   0.950   5.591   2.160
 2736WAT     H222160   0.950   5.685   2.279
 2737WAT      O22161   0.951   5.246   1.543
 2737WAT     H122162   0.907   5.221   1.462
 2737WAT     H222163   0.900   5.206   1.613
 2738WAT      O22164   0.447   0.472   3.378
 2738WAT     H122165   0.381   0.540   3.389
 2738WAT     H222166   0.451   0.458   3.283
 2739WAT      O22167   1.411   1.762   9.639
 2739WAT     H122168   1.391   1.855   9.633
 2739WAT     H222169   1.491   1.758   9.692
 2740WAT      O22170   4.569   4.961   2.127
 2740WAT     H122171   4.568   4.944   2.033
 2740WAT     H222172   4.476   4.971   2.151
 2741WAT      O22173   0.432   3.576   8.762
 2741WAT     H122174   0.394   3.489   8.775
 2741WAT     H222175   0.356   3.634   8.753
 2742WAT      O22176   1.637   3.807   7.965
 2742WAT     H122177   1.685   3.728   7.941
 2742WAT     H222178   1.705   3.866   7.998
 2743WAT      O22179   1.925   1.655  12.606
 2743WAT     H122180   1.908   1.658  12.512
 2743WAT     H222181   2.020   1.650  12.614
 2744WAT      O22182   5.894   4.908   7.948
 2744WAT     H122183   5.984   4.938   7.963
 2744WAT     H222184   5.850   4.984   7.910
 2745WAT      O22185   2.324   1.713  10.356
 2745WAT     H122186   2.412   1.718  10.318
 2745WAT     H222187   2.322   1.629  10.400
 2746WAT      O22188   1.486   0.334  10.042
 2746WAT     H122189   1.493   0.425  10.012
 2746WAT     H222190   1.507   0.339  10.135
 2747WAT      O22191   2.287   2.811  12.406
 2747WAT     H122192   2.297   2.905  12.392
 2747WAT     H222193   2.367   2.785  12.452
 2748WAT      O22194   0.280   2.134   3.936
 2748WAT     H122195   0.296   2.121   4.030
 2748WAT     H222196   0.233   2.055   3.909
 2749WAT      O22197   2.579   5.969  11.763
 2749WAT     H122198   2.648   6.029  11.736
 2749WAT     H222199   2.505   5.989  11.706
 2750WAT      O22200   2.528   5.708  10.934
 2750WAT     H122201   2.614   5.716  10.893
 2750WAT     H222202   2.513   5.614  10.940
 2751WAT      O22203   6.156   5.037   7.991
 2751WAT     H122204   6.237   5.047   7.940
 2751WAT     H222205   6.097   5.103   7.954
 2752WAT      O22206   2.410   1.975   8.424
 2752WAT     H122207   2.410   2.070   8.414
 2752WAT     H222208   2.383   1.942   8.338
 2753WAT      O22209   2.503   0.389  10.330
 2753WAT     H122210   2.540   0.477  10.326
 2753WAT     H222211   2.531   0.356  10.416
 2754WAT      O22212   0.577   1.010   0.248
 2754WAT     H122213   0.643   1.041   0.310
 2754WAT     H222214   0.593   0.916   0.240
 2755WAT      O22215   5.656   5.218   1.674
 2755WAT     H122216   5.708   5.214   1.754
 2755WAT     H222217   5.633   5.311   1.665
 2756WAT      O22218   0.560   4.646  12.017
 2756WAT     H122219   0.595   4.639  11.928
 2756WAT     H222220   0.622   4.596  12.070
 2757WAT      O22221   5.232   5.566   3.136
 2757WAT     H122222   5.297   5.615   3.085
 2757WAT     H222223   5.150   5.612   3.120
 2758WAT      O22224   3.773   4.101   2.862
 2758WAT     H122225   3.848   4.135   2.814
 2758WAT     H222226   3.749   4.172   2.922
 2759WAT      O22227   2.938   1.489   8.815
 2759WAT     H122228   2.930   1.415   8.754
 2759WAT     H222229   3.026   1.480   8.852
 2760WAT      O22230   3.507   2.425   2.617
 2760WAT     H122231   3.541   2.472   2.693
 2760WAT     H222232   3.577   2.362   2.596
 2761WAT      O22233   1.249   2.794   0.698
 2761WAT     H122234   1.311   2.866   0.686
 2761WAT     H222235   1.238   2.756   0.611
 2762WAT      O22236   2.809   1.637   0.155
 2762WAT     H122237   2.738   1.660   0.216
 2762WAT     H222238   2.765   1.629   0.070
 2763WAT      O22239   2.065   1.801   1.987
 2763WAT     H122240   2.089   1.861   1.917
 2763WAT     H222241   1.971   1.812   1.998
 2764WAT      O22242   1.467   3.448  10.265
 2764WAT     H122243   1.557   3.469  10.240
 2764WAT     H222244   1.414   3.507  10.212
 2765WAT      O22245   1.636   1.029   3.842
 2765WAT     H122246   1.557   0.979   3.824
 2765WAT     H222247   1.660   1.005   3.931
 2766WAT      O22248   0.688   2.870  10.265
 2766WAT     H122249   0.688   2.808  10.192
 2766WAT     H222250   0.637   2.826  10.333
 2767WAT      O22251   4.494   0.246   9.427
 2767WAT     H122252   4.515   0.166   9.476
 2767WAT     H222253   4.536   0.316   9.476
 2768WAT      O22254   5.556   3.284  10.959
 2768WAT     H122255   5.506   3.356  10.920
 2768WAT     H222256   5.499   3.208  10.952
 2769WAT      O22257   4.837   4.417  11.662
 2769WAT     H122258   4.812   4.383  11.748
 2769WAT     H222259   4.922   4.377  11.644
 2770WAT      O22260   5.862   1.407  10.481
 2770WAT     H122261   5.835   1.404  10.572
 2770WAT     H222262   5.780   1.415  10.432
 2771WAT      O22263   1.159   5.173   1.760
 2771WAT     H122264   1.248   5.140   1.751
 2771WAT     H222265   1.132   5.194   1.671
 2772WAT      O22266   4.470   4.647   9.286
 2772WAT     H122267   4.407   4.672   9.219
 2772WAT     H222268   4.462   4.551   9.292
 2773WAT      O22269   1.051   1.832  10.180
 2773WAT     H122270   1.142   1.811  10.160
 2773WAT     H222271   1.040   1.922  10.150
 2774WAT      O22272   2.795   4.309  11.566
 2774WAT     H122273   2.846   4.231  11.541
 2774WAT     H222274   2.844   4.382  11.530
 2775WAT      O22275   4.224   2.954   9.174
 2775WAT     H122276   4.184   2.868   9.191
 2775WAT     H222277   4.313   2.945   9.208
 2776WAT      O22278   3.827   2.674   0.746
 2776WAT     H122279   3.739   2.711   0.756
 2776WAT     H222280   3.837   2.661   0.652
 2777WAT      O22281   1.399   2.410  11.889
 2777WAT     H122282   1.398   2.502  11.915
 2777WAT     H222283   1.394   2.412  11.793
 2778WAT      O22284   3.180   2.394  10.156
 2778WAT     H122285   3.192   2.479  10.197
 2778WAT     H222286   3.118   2.348  10.213
 2779WAT      O22287   3.211   2.259   2.508
 2779WAT     H122288   3.259   2.217   2.579
 2779WAT     H222289   3.139   2.198   2.489
 2780WAT      O22290   3.010   0.548  11.709
 2780WAT     H122291   2.965   0.629  11.733
 2780WAT     H222292   3.073   0.534  11.780
 2781WAT      O22293   1.490   2.879   9.097
 2781WAT     H122294   1.450   2.858   9.013
 2781WAT     H222295   1.447   2.960   9.125
 2782WAT      O22296   5.267   2.566  10.602
 2782WAT     H122297   5.294   2.475  10.594
 2782WAT     H222298   5.348   2.616  10.587
 2783WAT      O22299   2.969   0.812   0.541
 2783WAT     H122300   2.879   0.780   0.546
 2783WAT     H222301   2.967   0.896   0.586
 2784WAT      O22302   3.962   4.815   9.607
 2784WAT     H122303   4.016   4.876   9.657
 2784WAT     H222304   3.889   4.794   9.665
 2785WAT      O22305   5.290   5.197  -0.002
 2785WAT     H122306   5.356   5.171   0.063
 2785WAT     H222307   5.288   5.293   0.003
 2786WAT      O22308   2.586   5.656  11.702
 2786WAT     H122309   2.548   5.743  11.716
 2786WAT     H222310   2.680   5.671  11.703
 2787WAT      O22311   4.010   5.438   2.667
 2787WAT     H122312   3.945   5.424   2.599
 2787WAT     H222313   4.073   5.499   2.627
 2788WAT      O22314   3.092   3.838  11.227
 2788WAT     H122315   3.135   3.814  11.309
 2788WAT     H222316   3.164   3.852  11.165
 2789WAT      O22317   3.824   4.900   8.779
 2789WAT     H122318   3.882   4.898   8.855
 2789WAT     H222319   3.765   4.826   8.792
 2790WAT      O22320   5.160   1.035   0.984
 2790WAT     H122321   5.208   1.101   0.934
 2790WAT     H222322   5.198   1.039   1.072
 2791WAT      O22323   1.730   5.510   1.079
 2791WAT     H122324   1.745   5.604   1.071
 2791WAT     H222325   1.746   5.475   0.992
 2792WAT      O22326   0.246   2.042   2.593
 2792WAT     H122327   0.240   1.981   2.666
 2792WAT     H222328   0.268   2.126   2.633
 2793WAT      O22329   3.551   2.153   4.661
 2793WAT     H122330   3.496   2.079   4.689
 2793WAT     H222331   3.566   2.203   4.742
 2794WAT      O22332   4.283   0.170   3.888
 2794WAT     H122333   4.286   0.207   3.976
 2794WAT     H222334   4.190   0.174   3.864
 2795WAT      O22335   3.048   0.257   0.397
 2795WAT     H122336   3.067   0.351   0.398
 2795WAT     H222337   3.050   0.231   0.490
 2796WAT      O22338   1.931   5.784   8.930
 2796WAT     H122339   2.021   5.813   8.913
 2796WAT     H222340   1.896   5.849   8.991
 2797WAT      O22341   2.091   5.066   3.131
 2797WAT     H122342   2.084   5.149   3.084
 2797WAT     H222343   2.132   5.006   3.068
 2798WAT      O22344   3.167   3.821  10.494
 2798WAT     H122345   3.231   3.750  10.488
 2798WAT     H222346   3.192   3.868  10.574
 2799WAT      O22347   4.570   2.294  11.519
 2799WAT     H122348   4.654   2.288  11.564
 2799WAT     H222349   4.518   2.355  11.572
 2800WAT      O22350   4.871   2.423   8.384
 2800WAT     H122351   4.782   2.428   8.417
 2800WAT     H222352   4.924   2.404   8.461
 2801WAT      O22353   0.132   0.054   9.785
 2801WAT     H122354   0.036   0.050   9.787
 2801WAT     H222355   0.153   0.142   9.814
 2802WAT      O22356   5.470   3.399   0.906
 2802WAT     H122357   5.474   3.429   0.815
 2802WAT     H222358   5.430   3.311   0.900
 2803WAT      O22359   1.334   3.202  -0.028
 2803WAT     H122360   1.374   3.218   0.057
 2803WAT     H222361   1.302   3.112  -0.023
 2804WAT      O22362   1.079   4.326   9.830
 2804WAT     H122363   1.006   4.319   9.769
 2804WAT     H222364   1.096   4.420   9.838
 2805WAT      O22365   1.051   6.185   7.547
 2805WAT     H122366   1.022   6.245   7.478
 2805WAT     H222367   1.138   6.156   7.519
 2806WAT      O22368   3.079   5.336  12.466
 2806WAT     H122369   3.169   5.353  12.441
 2806WAT     H222370   3.031   5.330  12.383
 2807WAT      O22371   3.574   2.615   9.228
 2807WAT     H122372   3.495   2.627   9.281
 2807WAT     H222373   3.572   2.687   9.165
 2808WAT      O22374   5.935   1.643   8.746
 2808WAT     H122375   6.012   1.652   8.689
 2808WAT     H222376   5.904   1.553   8.730
 2809WAT      O22377   5.440   1.263   2.591
 2809WAT     H122378   5.409   1.233   2.676
 2809WAT     H222379   5.477   1.350   2.607
 2810WAT      O22380   1.129   1.663   2.591
 2810WAT     H122381   1.137   1.627   2.679
 2810WAT     H222382   1.077   1.597   2.543
 2811WAT      O22383   6.190   0.794  10.519
 2811WAT     H122384   6.183   0.835  10.433
 2811WAT     H222385   6.177   0.700  10.502
 2812WAT      O22386   5.082   1.139   7.561
 2812WAT     H122387   5.005   1.186   7.593
 2812WAT     H222388   5.091   1.065   7.620
 2813WAT      O22389   0.507   4.629   4.716
 2813WAT     H122390   0.534   4.694   4.782
 2813WAT     H222391   0.575   4.561   4.721
 2814WAT      O22392   4.174   6.071  10.499
 2814WAT     H122393   4.234   6.145  10.492
 2814WAT     H222394   4.150   6.069  10.592
 2815WAT      O22395   2.289   4.704   4.462
 2815WAT     H122396   2.255   4.615   4.472
 2815WAT     H222397   2.344   4.717   4.539
 2816WAT      O22398   2.013   5.130   0.600
 2816WAT     H122399   1.926   5.092   0.583
 2816WAT     H222400   2.003   5.174   0.685
 2817WAT      O22401   4.605   5.562   9.791
 2817WAT     H122402   4.666   5.633   9.767
 2817WAT     H222403   4.521   5.589   9.754
 2818WAT      O22404   4.785   2.816   8.476
 2818WAT     H122405   4.725   2.750   8.440
 2818WAT     H222406   4.796   2.880   8.406
 2819WAT      O22407   0.351   3.387   3.562
 2819WAT     H122408   0.330   3.453   3.629
 2819WAT     H222409   0.433   3.418   3.524
 2820WAT      O22410   0.189   3.797  11.049
 2820WAT     H122411   0.193   3.883  11.090
 2820WAT     H222412   0.162   3.738  11.120
 2821WAT      O22413   3.034   3.576  10.655
 2821WAT     H122414   3.056   3.660  10.695
 2821WAT     H222415   2.967   3.539  10.713
 2822WAT      O22416   2.255   0.411   8.024
 2822WAT     H122417   2.325   0.348   8.043
 2822WAT     H222418   2.183   0.357   7.991
 2823WAT      O22419   1.435   5.895   9.067
 2823WAT     H122420   1.451   5.809   9.106
 2823WAT     H222421   1.403   5.875   8.979
 2824WAT      O22422   0.354   0.635  12.047
 2824WAT     H122423   0.339   0.546  12.078
 2824WAT     H222424   0.415   0.626  11.974
 2825WAT      O22425   0.866   3.190   8.876
 2825WAT     H122426   0.804   3.245   8.925
 2825WAT     H222427   0.927   3.158   8.942
 2826WAT      O22428   3.371   3.096   1.019
 2826WAT     H122429   3.445   3.146   0.984
 2826WAT     H222430   3.367   3.121   1.112
 2827WAT      O22431   1.320   1.544   8.854
 2827WAT     H122432   1.374   1.572   8.780
 2827WAT     H222433   1.240   1.597   8.847
 2828WAT      O22434   4.401   6.094   0.953
 2828WAT     H122435   4.493   6.095   0.978
 2828WAT     H222436   4.390   6.173   0.899
 2829WAT      O22437   5.210   2.381  12.563
 2829WAT     H122438   5.135   2.426  12.602
 2829WAT     H222439   5.253   2.338  12.636
 2830WAT      O22440   2.806   3.068   0.941
 2830WAT     H122441   2.782   3.013   1.015
 2830WAT     H222442   2.752   3.035   0.869
 2831WAT      O22443   2.296   6.121   8.701
 2831WAT     H122444   2.254   6.109   8.616
 2831WAT     H222445   2.389   6.129   8.681
 2832WAT      O22446   1.294   3.703   1.120
 2832WAT     H122447   1.257   3.772   1.064
 2832WAT     H222448   1.388   3.713   1.112
 2833WAT      O22449   4.319   4.599   4.396
 2833WAT     H122450   4.303   4.622   4.305
 2833WAT     H222451   4.276   4.669   4.446
 2834WAT      O22452   0.763   4.109   0.935
 2834WAT     H122453   0.801   4.177   0.991
 2834WAT     H222454   0.721   4.158   0.864
 2835WAT      O22455   2.242   2.424  12.247
 2835WAT     H122456   2.261   2.496  12.187
 2835WAT     H222457   2.159   2.388  12.214
 2836WAT      O22458   1.777   3.577   2.091
 2836WAT     H122459   1.775   3.672   2.104
 2836WAT     H222460   1.770   3.540   2.179
 2837WAT      O22461   2.913   2.142  11.564
 2837WAT     H122462   2.952   2.141  11.476
 2837WAT     H222463   2.819   2.146  11.548
 2838WAT      O22464   3.193   2.534   2.729
 2838WAT     H122465   3.209   2.592   2.654
 2838WAT     H222466   3.119   2.480   2.702
 2839WAT      O22467   5.961   2.804   3.420
 2839WAT     H122468   5.880   2.780   3.465
 2839WAT     H222469   5.985   2.889   3.458
 2840WAT      O22470   6.102   0.029  10.819
 2840WAT     H122471   6.051  -0.018  10.885
 2840WAT     H222472   6.189  -0.009  10.823
 2841WAT      O22473   1.877   4.747   3.909
 2841WAT     H122474   1.921   4.768   3.826
 2841WAT     H222475   1.784   4.757   3.889
 2842WAT      O22476   0.409   2.915   8.341
 2842WAT     H122477   0.413   3.010   8.333
 2842WAT     H222478   0.384   2.900   8.432
 2843WAT      O22479   3.698   0.959   1.648
 2843WAT     H122480   3.781   0.957   1.695
 2843WAT     H222481   3.633   0.980   1.715
 2844WAT      O22482   2.069   2.630   3.934
 2844WAT     H122483   2.013   2.596   4.004
 2844WAT     H222484   2.089   2.719   3.961
 2845WAT      O22485   4.401   6.031   7.617
 2845WAT     H122486   4.361   5.960   7.667
 2845WAT     H222487   4.494   6.027   7.637
 2846WAT      O22488   3.602   6.080  11.250
 2846WAT     H122489   3.569   5.990  11.252
 2846WAT     H222490   3.554   6.121  11.177
 2847WAT      O22491   6.071   0.691   8.497
 2847WAT     H122492   6.149   0.741   8.472
 2847WAT     H222493   6.007   0.712   8.429
 2848WAT      O22494   4.361   3.282   3.069
 2848WAT     H122495   4.286   3.329   3.105
 2848WAT     H222496   4.324   3.204   3.027
 2849WAT      O22497   4.360   0.810  11.228
 2849WAT     H122498   4.287   0.848  11.179
 2849WAT     H222499   4.353   0.716  11.211
 2850WAT      O22500   5.179   3.642   4.778
 2850WAT     H122501   5.209   3.726   4.812
 2850WAT     H222502   5.256   3.586   4.777
 2851WAT      O22503   3.032   2.305  10.366
 2851WAT     H122504   2.983   2.384  10.386
 2851WAT     H222505   2.969   2.248  10.322
 2852WAT      O22506   3.601   4.077  12.015
 2852WAT     H122507   3.691   4.100  11.991
 2852WAT     H222508   3.577   4.141  12.082
 2853WAT      O22509   1.137   4.367   0.619
 2853WAT     H122510   1.042   4.355   0.612
 2853WAT     H222511   1.148   4.462   0.628
 2854WAT      O22512   2.558   4.140   3.724
 2854WAT     H122513   2.489   4.206   3.728
 2854WAT     H222514   2.637   4.190   3.703
 2855WAT      O22515   2.983   4.615   8.764
 2855WAT     H122516   2.930   4.691   8.790
 2855WAT     H222517   2.919   4.551   8.732
 2856WAT      O22518   2.961   2.623  10.650
 2856WAT     H122519   3.027   2.630  10.580
 2856WAT     H222520   2.881   2.594  10.605
 2857WAT      O22521   6.008   6.002   8.784
 2857WAT     H122522   5.940   5.954   8.737
 2857WAT     H222523   6.072   5.935   8.808
 2858WAT      O22524   3.876   1.095   4.043
 2858WAT     H122525   3.957   1.102   3.992
 2858WAT     H222526   3.811   1.063   3.981
 2859WAT      O22527   1.093   3.977  11.535
 2859WAT     H122528   1.138   3.955  11.617
 2859WAT     H222529   1.164   3.993  11.473
 2860WAT      O22530   0.771   5.825   2.747
 2860WAT     H122531   0.791   5.771   2.670
 2860WAT     H222532   0.683   5.858   2.729
 2861WAT      O22533   1.644   3.766   8.258
 2861WAT     H122534   1.582   3.740   8.190
 2861WAT     H222535   1.709   3.820   8.212
 2862WAT      O22536   3.709   0.356   8.949
 2862WAT     H122537   3.670   0.271   8.968
 2862WAT     H222538   3.634   0.415   8.939
 2863WAT      O22539   6.133   2.162   2.969
 2863WAT     H122540   6.072   2.183   3.040
 2863WAT     H222541   6.184   2.088   3.003
 2864WAT      O22542   1.857   3.490   9.593
 2864WAT     H122543   1.920   3.440   9.646
 2864WAT     H222544   1.773   3.446   9.608
 2865WAT      O22545   3.457   5.759  11.785
 2865WAT     H122546   3.389   5.755  11.853
 2865WAT     H222547   3.412   5.732  11.705
 2866WAT      O22548   2.147   2.601   3.297
 2866WAT     H122549   2.120   2.689   3.321
 2866WAT     H222550   2.229   2.587   3.345
 2867WAT      O22551   0.832   4.528  12.693
 2867WAT     H122552   0.883   4.544  12.614
 2867WAT     H222553   0.743   4.552  12.669
 2868WAT      O22554   5.560   1.736   2.866
 2868WAT     H122555   5.538   1.815   2.816
 2868WAT     H222556   5.488   1.727   2.930
 2869WAT      O22557   3.464   3.067   2.082
 2869WAT     H122558   3.528   3.027   2.024
 2869WAT     H222559   3.380   3.049   2.040
 2870WAT      O22560   1.679   0.288   4.138
 2870WAT     H122561   1.710   0.378   4.136
 2870WAT     H222562   1.705   0.256   4.224
 2871WAT      O22563   1.051   1.715   7.975
 2871WAT     H122564   0.969   1.681   7.939
 2871WAT     H222565   1.091   1.640   8.020
 2872WAT      O22566   4.926   0.129   8.748
 2872WAT     H122567   4.848   0.151   8.697
 2872WAT     H222568   4.893   0.085   8.826
 2873WAT      O22569   1.252   5.764   1.240
 2873WAT     H122570   1.334   5.719   1.220
 2873WAT     H222571   1.257   5.783   1.334
 2874WAT      O22572   4.668   1.012   0.588
 2874WAT     H122573   4.603   1.057   0.641
 2874WAT     H222574   4.723   1.082   0.553
 2875WAT      O22575   6.083   4.522   1.516
 2875WAT     H122576   6.033   4.591   1.560
 2875WAT     H222577   6.169   4.524   1.558
 2876WAT      O22578   3.137   5.147  11.657
 2876WAT     H122579   3.128   5.052  11.668
 2876WAT     H222580   3.203   5.173  11.722
 2877WAT      O22581   1.199   4.664   1.643
 2877WAT     H122582   1.216   4.595   1.707
 2877WAT     H222583   1.286   4.696   1.618
 2878WAT      O22584   0.787   0.347   2.488
 2878WAT     H122585   0.802   0.391   2.572
 2878WAT     H222586   0.803   0.254   2.507
 2879WAT      O22587   6.008   3.538  12.231
 2879WAT     H122588   5.982   3.512  12.319
 2879WAT     H222589   5.988   3.631  12.226
 2880WAT      O22590   1.449   0.607  10.066
 2880WAT     H122591   1.523   0.662  10.091
 2880WAT     H222592   1.434   0.628   9.974
 2881WAT      O22593   4.581   6.008   8.758
 2881WAT     H122594   4.585   5.918   8.727
 2881WAT     H222595   4.510   6.048   8.707
 2882WAT      O22596   5.370   1.812   9.250
 2882WAT     H122597   5.460   1.787   9.271
 2882WAT     H222598   5.347   1.757   9.174
 2883WAT      O22599   4.046   1.378   3.002
 2883WAT     H122600   4.006   1.417   3.080
 2883WAT     H222601   3.983   1.394   2.932
 2884WAT      O22602   1.114   3.027   9.813
 2884WAT     H122603   1.091   2.967   9.741
 2884WAT     H222604   1.207   3.010   9.829
 2885WAT      O22605   0.164   4.999   3.104
 2885WAT     H122606   0.177   5.091   3.081
 2885WAT     H222607   0.070   4.986   3.102
 2886WAT      O22608   5.694   3.437   0.533
 2886WAT     H122609   5.646   3.356   0.515
 2886WAT     H222610   5.628   3.497   0.568
 2887WAT      O22611   1.269   1.765  12.069
 2887WAT     H122612   1.249   1.852  12.105
 2887WAT     H222613   1.349   1.738  12.115
 2888WAT      O22614   2.011   6.032   2.887
 2888WAT     H122615   1.944   5.967   2.908
 2888WAT     H222616   1.978   6.076   2.809
 2889WAT      O22617   2.940   0.801   9.116
 2889WAT     H122618   2.897   0.866   9.172
 2889WAT     H222619   2.997   0.853   9.059
 2890WAT      O22620   4.763  -0.012   9.973
 2890WAT     H122621   4.710   0.055   9.930
 2890WAT     H222622   4.850   0.027   9.980
 2891WAT      O22623   0.398   1.482   8.024
 2891WAT     H122624   0.488   1.450   8.018
 2891WAT     H222625   0.407   1.571   8.057
 2892WAT      O22626   2.577   2.269  11.762
 2892WAT     H122627   2.514   2.285  11.832
 2892WAT     H222628   2.662   2.284  11.803
 2893WAT      O22629   0.678   0.890   2.640
 2893WAT     H122630   0.664   0.838   2.720
 2893WAT     H222631   0.760   0.857   2.604
 2894WAT      O22632   2.512   5.181   9.960
 2894WAT     H122633   2.450   5.234   9.909
 2894WAT     H222634   2.537   5.238  10.034
 2895WAT      O22635   4.700   1.010   8.169
 2895WAT     H122636   4.642   1.067   8.219
 2895WAT     H222637   4.670   1.020   8.078
 2896WAT      O22638   1.723   3.475   0.152
 2896WAT     H122639   1.738   3.532   0.227
 2896WAT     H222640   1.787   3.504   0.087
 2897WAT      O22641   4.145   5.100   8.674
 2897WAT     H122642   4.146   5.158   8.750
 2897WAT     H222643   4.056   5.107   8.639
 2898WAT      O22644   5.927   1.078   9.812
 2898WAT     H122645   5.838   1.093   9.779
 2898WAT     H222646   5.915   1.064   9.906
 2899WAT      O22647   5.984   0.879   0.908
 2899WAT     H122648   5.951   0.789   0.906
 2899WAT     H222649   6.070   0.873   0.866
 2900WAT      O22650   0.233   4.042  12.292
 2900WAT     H122651   0.310   4.069  12.343
 2900WAT     H222652   0.252   4.071  12.203
 2901WAT      O22653   1.214   3.755   3.932
 2901WAT     H122654   1.145   3.812   3.897
 2901WAT     H222655   1.194   3.749   4.026
 2902WAT      O22656   4.260   0.807  10.752
 2902WAT     H122657   4.307   0.730  10.720
 2902WAT     H222658   4.170   0.792  10.724
 2903WAT      O22659   4.485   3.690   8.651
 2903WAT     H122660   4.408   3.738   8.619
 2903WAT     H222661   4.452   3.602   8.670
 2904WAT      O22662   5.582   5.982   9.057
 2904WAT     H122663   5.572   5.975   9.152
 2904WAT     H222664   5.552   6.070   9.036
 2905WAT      O22665   1.224   2.946  10.156
 2905WAT     H122666   1.195   2.855  10.159
 2905WAT     H222667   1.283   2.955  10.230
 2906WAT      O22668   2.086   1.152   0.710
 2906WAT     H122669   2.086   1.106   0.626
 2906WAT     H222670   2.171   1.197   0.712
 2907WAT      O22671   4.307   0.865  -0.008
 2907WAT     H122672   4.229   0.921  -0.011
 2907WAT     H222673   4.283   0.794   0.052
 2908WAT      O22674   1.565   2.276   0.228
 2908WAT     H122675   1.612   2.358   0.246
 2908WAT     H222676   1.628   2.223   0.179
 2909WAT      O22677   0.723   0.611  11.013
 2909WAT     H122678   0.764   0.618  11.099
 2909WAT     H222679   0.771   0.673  10.958
 2910WAT      O22680   5.063   5.158  12.382
 2910WAT     H122681   5.044   5.171  12.475
 2910WAT     H222682   4.991   5.103  12.351
 2911WAT      O22683   2.085   2.744   9.738
 2911WAT     H122684   2.144   2.684   9.692
 2911WAT     H222685   2.027   2.687   9.788
 2912WAT      O22686   0.231   4.587   0.400
 2912WAT     H122687   0.207   4.580   0.308
 2912WAT     H222688   0.311   4.639   0.401
 2913WAT      O22689   5.237   0.611   0.259
 2913WAT     H122690   5.223   0.572   0.345
 2913WAT     H222691   5.208   0.701   0.268
 2914WAT      O22692   3.699   0.702   9.794
 2914WAT     H122693   3.658   0.660   9.719
 2914WAT     H222694   3.791   0.714   9.767
 2915WAT      O22695   2.547   4.528  10.969
 2915WAT     H122696   2.546   4.447  11.021
 2915WAT     H222697   2.568   4.499  10.880
 2916WAT      O22698   5.840   0.296  10.501
 2916WAT     H122699   5.764   0.245  10.474
 2916WAT     H222700   5.836   0.296  10.597
 2917WAT      O22701   5.990   0.043  11.545
 2917WAT     H122702   6.056  -0.023  11.566
 2917WAT     H222703   5.955   0.071  11.630
 2918WAT      O22704   1.783   1.921  11.419
 2918WAT     H122705   1.856   1.938  11.360
 2918WAT     H222706   1.817   1.856  11.480
 2919WAT      O22707   1.507   0.863  11.505
 2919WAT     H122708   1.552   0.806  11.442
 2919WAT     H222709   1.573   0.927  11.530
 2920WAT      O22710   1.566   0.673   1.314
 2920WAT     H122711   1.638   0.625   1.355
 2920WAT     H222712   1.516   0.606   1.268
 2921WAT      O22713   3.020   4.255   4.706
 2921WAT     H122714   2.982   4.308   4.776
 2921WAT     H222715   2.954   4.189   4.686
 2922WAT      O22716   5.779   4.718   9.374
 2922WAT     H122717   5.734   4.757   9.298
 2922WAT     H222718   5.799   4.629   9.347
 2923WAT      O22719   3.031   1.946   8.234
 2923WAT     H122720   3.125   1.936   8.219
 2923WAT     H222721   3.008   1.873   8.292
 2924WAT      O22722   1.506   0.169  10.501
 2924WAT     H122723   1.516   0.222  10.422
 2924WAT     H222724   1.467   0.087  10.471
 2925WAT      O22725   5.936   3.050  12.059
 2925WAT     H122726   5.894   3.109  12.122
 2925WAT     H222727   5.957   3.107  11.984
 2926WAT      O22728   6.217   4.160   4.092
 2926WAT     H122729   6.174   4.096   4.149
 2926WAT     H222730   6.157   4.235   4.092
 2927WAT      O22731   6.103   0.564  10.183
 2927WAT     H122732   6.073   0.477  10.154
 2927WAT     H222733   6.164   0.592  10.114
 2928WAT      O22734   2.383   3.328  10.708
 2928WAT     H122735   2.378   3.233  10.712
 2928WAT     H222736   2.452   3.351  10.769
 2929WAT      O22737   4.632   6.080   9.398
 2929WAT     H122738   4.707   6.041   9.442
 2929WAT     H222739   4.621   6.166   9.440
 2930WAT      O22740   4.956   1.346  10.855
 2930WAT     H122741   4.930   1.254  10.853
 2930WAT     H222742   4.927   1.376  10.942
 2931WAT      O22743   5.482   2.930   8.586
 2931WAT     H122744   5.523   2.933   8.499
 2931WAT     H222745   5.515   2.850   8.625
 2932WAT      O22746   2.903   1.389  10.189
 2932WAT     H122747   2.890   1.475  10.149
 2932WAT     H222748   2.835   1.383  10.256
 2933WAT      O22749   1.512   1.878  10.884
 2933WAT     H122750   1.444   1.899  10.948
 2933WAT     H222751   1.592   1.917  10.919
 2934WAT      O22752   5.045   0.315   4.217
 2934WAT     H122753   5.011   0.354   4.298
 2934WAT     H222754   5.140   0.313   4.230
 2935WAT      O22755   4.072   3.697   2.052
 2935WAT     H122756   3.993   3.647   2.076
 2935WAT     H222757   4.062   3.780   2.098
 2936WAT      O22758   5.545   4.354   3.798
 2936WAT     H122759   5.551   4.293   3.871
 2936WAT     H222760   5.562   4.300   3.721
 2937WAT      O22761   3.188   0.203   9.079
 2937WAT     H122762   3.109   0.211   9.132
 2937WAT     H222763   3.166   0.134   9.015
 2938WAT      O22764   3.236   0.320   9.521
 2938WAT     H122765   3.203   0.263   9.590
 2938WAT     H222766   3.269   0.397   9.568
 2939WAT      O22767   2.747   4.645  12.281
 2939WAT     H122768   2.788   4.718  12.328
 2939WAT     H222769   2.794   4.640  12.198
 2940WAT      O22770   4.996   0.673  11.005
 2940WAT     H122771   4.997   0.583  10.971
 2940WAT     H222772   5.081   0.683  11.048
 2941WAT      O22773   0.355   0.879   0.681
 2941WAT     H122774   0.430   0.872   0.739
 2941WAT     H222775   0.296   0.809   0.711
 2942WAT      O22776   3.681   2.417  12.004
 2942WAT     H122777   3.716   2.504  12.022
 2942WAT     H222778   3.681   2.373  12.090
 2943WAT      O22779   5.314   3.820  10.309
 2943WAT     H122780   5.346   3.808  10.220
 2943WAT     H222781   5.230   3.775  10.311
 2944WAT      O22782   1.090   0.682  11.421
 2944WAT     H122783   1.139   0.744  11.476
 2944WAT     H222784   1.157   0.640  11.367
 2945WAT      O22785   1.273   4.321   2.734
 2945WAT     H122786   1.215   4.252   2.700
 2945WAT     H222787   1.245   4.333   2.824
 2946WAT      O22788   3.544   0.761   0.433
 2946WAT     H122789   3.486   0.687   0.418
 2946WAT     H222790   3.591   0.772   0.350
 2947WAT      O22791   3.721   2.145   1.425
 2947WAT     H122792   3.740   2.209   1.356
 2947WAT     H222793   3.741   2.060   1.386
 2948WAT      O22794   3.036   6.086   9.765
 2948WAT     H122795   3.006   6.076   9.675
 2948WAT     H222796   3.041   5.996   9.799
 2949WAT      O22797   0.364   3.741   9.475
 2949WAT     H122798   0.332   3.766   9.389
 2949WAT     H222799   0.450   3.782   9.482
 2950WAT      O22800   4.983   0.463   1.082
 2950WAT     H122801   4.954   0.466   0.991
 2950WAT     H222802   5.055   0.400   1.083
 2951WAT      O22803   1.222   4.730   1.277
 2951WAT     H122804   1.194   4.710   1.188
 2951WAT     H222805   1.170   4.805   1.302
 2952WAT      O22806   1.223   5.681   4.058
 2952WAT     H122807   1.209   5.734   3.980
 2952WAT     H222808   1.314   5.653   4.053
 2953WAT      O22809   2.793   0.421  10.192
 2953WAT     H122810   2.888   0.429  10.203
 2953WAT     H222811   2.758   0.501  10.231
 2954WAT      O22812   2.953   6.131  11.981
 2954WAT     H122813   3.029   6.183  12.008
 2954WAT     H222814   2.888   6.145  12.050
 2955WAT      O22815   2.419   5.998   4.459
 2955WAT     H122816   2.496   6.030   4.413
 2955WAT     H222817   2.451   5.977   4.547
 2956WAT      O22818   5.457   5.224   1.299
 2956WAT     H122819   5.444   5.210   1.393
 2956WAT     H222820   5.369   5.219   1.261
 2957WAT      O22821   1.615   5.620  11.914
 2957WAT     H122822   1.533   5.621  11.865
 2957WAT     H222823   1.681   5.594  11.850
 2958WAT      O22824   4.437   1.437  10.310
 2958WAT     H122825   4.438   1.469  10.400
 2958WAT     H222826   4.344   1.424  10.290
 2959WAT      O22827   4.088   5.024   3.015
 2959WAT     H122828   4.060   5.107   2.977
 2959WAT     H222829   4.058   5.027   3.106
 2960WAT      O22830   2.714   2.353   1.920
 2960WAT     H122831   2.778   2.423   1.931
 2960WAT     H222832   2.698   2.321   2.009
 2961WAT      O22833   5.894   4.571   2.359
 2961WAT     H122834   5.980   4.545   2.326
 2961WAT     H222835   5.912   4.615   2.442
 2962WAT      O22836   2.550   5.300   8.642
 2962WAT     H122837   2.641   5.294   8.614
 2962WAT     H222838   2.519   5.382   8.603
 2963WAT      O22839   5.399   4.077   8.209
 2963WAT     H122840   5.324   4.028   8.177
 2963WAT     H222841   5.390   4.163   8.168
 2964WAT      O22842   1.043   4.939   3.995
 2964WAT     H122843   1.006   4.897   3.917
 2964WAT     H222844   0.998   4.898   4.068
 2965WAT      O22845   3.032   3.932   2.508
 2965WAT     H122846   3.107   3.885   2.545
 2965WAT     H222847   3.026   4.012   2.560
 2966WAT      O22848   4.122   3.461   2.843
 2966WAT     H122849   4.059   3.444   2.772
 2966WAT     H222850   4.118   3.383   2.898
 2967WAT      O22851   1.361   5.230   3.901
 2967WAT     H122852   1.307   5.267   3.831
 2967WAT     H222853   1.412   5.161   3.859
 2968WAT      O22854   0.700   1.546  10.349
 2968WAT     H122855   0.646   1.615  10.310
 2968WAT     H222856   0.769   1.530  10.285
 2969WAT      O22857   4.226   4.537   4.674
 2969WAT     H122858   4.218   4.529   4.579
 2969WAT     H222859   4.295   4.602   4.687
 2970WAT      O22860   2.730   0.475   2.746
 2970WAT     H122861   2.687   0.396   2.779
 2970WAT     H222862   2.658   0.527   2.709
 2971WAT      O22863   5.950   1.289   3.640
 2971WAT     H122864   5.884   1.273   3.707
 2971WAT     H222865   5.907   1.349   3.578
 2972WAT      O22866   0.468   5.790   9.283
 2972WAT     H122867   0.466   5.735   9.361
 2972WAT     H222868   0.543   5.848   9.296
 2973WAT      O22869   4.387   0.601  10.660
 2973WAT     H122870   4.365   0.554  10.579
 2973WAT     H222871   4.468   0.647  10.639
 2974WAT      O22872   2.099   4.368   1.653
 2974WAT     H122873   2.084   4.452   1.610
 2974WAT     H222874   2.059   4.304   1.594
 2975WAT      O22875   1.616   6.202  11.169
 2975WAT     H122876   1.644   6.176  11.257
 2975WAT     H222877   1.590   6.120  11.127
 2976WAT      O22878   5.825   2.457  12.259
 2976WAT     H122879   5.778   2.416  12.186
 2976WAT     H222880   5.914   2.424  12.252
 2977WAT      O22881   5.711   1.526   7.875
 2977WAT     H122882   5.754   1.444   7.899
 2977WAT     H222883   5.620   1.502   7.859
 2978WAT      O22884   4.542   0.607   4.025
 2978WAT     H122885   4.518   0.541   4.091
 2978WAT     H222886   4.548   0.689   4.075
 2979WAT      O22887   0.121   6.152  10.769
 2979WAT     H122888   0.195   6.094  10.753
 2979WAT     H222889   0.105   6.194  10.684
 2980WAT      O22890   3.604   3.038   3.531
 2980WAT     H122891   3.597   2.979   3.456
 2980WAT     H222892   3.695   3.030   3.559
 2981WAT      O22893   1.102   4.659   0.376
 2981WAT     H122894   1.118   4.751   0.397
 2981WAT     H222895   1.051   4.626   0.450
 2982WAT      O22896   2.894   1.873   9.786
 2982WAT     H122897   2.986   1.899   9.788
 2982WAT     H222898   2.866   1.890   9.696
 2983WAT      O22899   5.054   5.172   7.955
 2983WAT     H122900   5.142   5.135   7.965
 2983WAT     H222901   5.048   5.195   7.862
 2984WAT      O22902   5.319   5.105   8.002
 2984WAT     H122903   5.397   5.118   7.947
 2984WAT     H222904   5.330   5.017   8.038
 2985WAT      O22905   5.469   0.846   8.224
 2985WAT     H122906   5.443   0.937   8.235
 2985WAT     H222907   5.388   0.796   8.239
 2986WAT      O22908   1.184   3.455  11.451
 2986WAT     H122909   1.249   3.402  11.405
 2986WAT     H222910   1.235   3.522  11.497
 2987WAT      O22911   5.812   5.507   4.007
 2987WAT     H122912   5.797   5.432   4.064
 2987WAT     H222913   5.767   5.484   3.925
 2988WAT      O22914   4.847   0.650   8.766
 2988WAT     H122915   4.757   0.661   8.798
 2988WAT     H222916   4.875   0.739   8.743
 2989WAT      O22917   1.895   5.563  12.327
 2989WAT     H122918   1.848   5.646  12.338
 2989WAT     H222919   1.856   5.524  12.248
 2990WAT      O22920   3.206   4.756  -0.036
 2990WAT     H122921   3.128   4.766   0.018
 2990WAT     H222922   3.279   4.761   0.026
 2991WAT      O22923   4.131   3.506   9.963
 2991WAT     H122924   4.099   3.420   9.936
 2991WAT     H222925   4.072   3.532  10.034
 2992WAT      O22926   3.075   1.454   7.919
 2992WAT     H122927   3.109   1.419   7.837
 2992WAT     H222928   3.006   1.392   7.945
 2993WAT      O22929   2.545   0.746   3.163
 2993WAT     H122930   2.546   0.669   3.106
 2993WAT     H222931   2.464   0.737   3.214
 2994WAT      O22932   1.649   5.964   7.693
 2994WAT     H122933   1.666   5.871   7.681
 2994WAT     H222934   1.647   6.000   7.605
 2995WAT      O22935   1.623   3.562   2.610
 2995WAT     H122936   1.700   3.616   2.626
 2995WAT     H222937   1.554   3.624   2.589
 2996WAT      O22938   2.893   5.661   1.872
 2996WAT     H122939   2.905   5.567   1.884
 2996WAT     H222940   2.962   5.701   1.924
 2997WAT      O22941   4.348   0.391   2.483
 2997WAT     H122942   4.442   0.372   2.490
 2997WAT     H222943   4.307   0.305   2.478
 2998WAT      O22944   5.117   1.991  12.301
 2998WAT     H122945   5.065   2.012  12.378
 2998WAT     H222946   5.198   2.041  12.312
 2999WAT      O22947   5.218   0.222  10.326
 2999WAT     H122948   5.139   0.171  10.305
 2999WAT     H222949   5.253   0.181  10.405
 3000WAT      O22950   4.551   5.831   0.575
 3000WAT     H122951   4.508   5.915   0.561
 3000WAT     H222952   4.626   5.832   0.516
 3001WAT      O22953   3.551   6.172  10.505
 3001WAT     H122954   3.477   6.115  10.483
 3001WAT     H222955   3.628   6.124  10.474
 3002WAT      O22956   4.699   4.362   3.251
 3002WAT     H122957   4.727   4.449   3.224
 3002WAT     H222958   4.748   4.302   3.195
 3003WAT      O22959   4.475   5.768   2.213
 3003WAT     H122960   4.393   5.805   2.179
 3003WAT     H222961   4.493   5.693   2.157
 3004WAT      O22962   2.459   3.589   0.622
 3004WAT     H122963   2.460   3.654   0.691
 3004WAT     H222964   2.472   3.505   0.667
 3005WAT      O22965   0.256   5.178   0.953
 3005WAT     H122966   0.290   5.241   1.017
 3005WAT     H222967   0.222   5.106   1.006
 3006WAT      O22968   2.431   1.255   8.783
 3006WAT     H122969   2.508   1.304   8.812
 3006WAT     H222970   2.466   1.190   8.722
 3007WAT      O22971   2.147   1.940  11.849
 3007WAT     H122972   2.170   2.007  11.913
 3007WAT     H222973   2.052   1.931  11.855
 3008WAT      O22974   0.652   2.226   1.272
 3008WAT     H122975   0.605   2.169   1.333
 3008WAT     H222976   0.727   2.258   1.322
 3009WAT      O22977   2.942   0.786  12.437
 3009WAT     H122978   2.856   0.746  12.432
 3009WAT     H222979   2.971   0.770  12.526
 3010WAT      O22980   1.628   6.075   9.163
 3010WAT     H122981   1.575   6.133   9.218
 3010WAT     H222982   1.566   6.010   9.131
 3011WAT      O22983   2.891   0.439   2.077
 3011WAT     H122984   2.825   0.494   2.118
 3011WAT     H222985   2.867   0.350   2.101
 3012WAT      O22986   2.105   2.613  11.875
 3012WAT     H122987   2.168   2.664  11.926
 3012WAT     H222988   2.020   2.636  11.913
 3013WAT      O22989   2.806   3.928   8.548
 3013WAT     H122990   2.881   3.981   8.574
 3013WAT     H222991   2.798   3.942   8.454
 3014WAT      O22992   1.475   0.541   8.950
 3014WAT     H122993   1.461   0.481   8.876
 3014WAT     H222994   1.548   0.502   8.999
 3015WAT      O22995   5.647   2.875   1.649
 3015WAT     H122996   5.656   2.796   1.703
 3015WAT     H222997   5.697   2.855   1.570
 3016WAT      O22998   4.329   5.824  11.117
 3016WAT     H122999   4.410   5.773  11.110
 3016WAT     H223000   4.282   5.806  11.035
 3017WAT      O23001   6.181   5.218   2.166
 3017WAT     H123002   6.182   5.289   2.230
 3017WAT     H223003   6.202   5.260   2.082
 3018WAT      O23004   4.215   5.704  10.746
 3018WAT     H123005   4.207   5.798  10.733
 3018WAT     H223006   4.161   5.666  10.676
 3019WAT      O23007   1.181   0.182  10.397
 3019WAT     H123008   1.188   0.090  10.422
 3019WAT     H223009   1.182   0.181  10.302
 3020WAT      O23010   3.524   4.696   3.261
 3020WAT     H123011   3.588   4.689   3.190
 3020WAT     H223012   3.576   4.692   3.341
 3021WAT      O23013   1.234   4.180   8.580
 3021WAT     H123014   1.178   4.177   8.503
 3021WAT     H223015   1.204   4.256   8.630
 3022WAT      O23016   0.139   1.295   2.946
 3022WAT     H123017   0.082   1.221   2.966
 3022WAT     H223018   0.187   1.268   2.868
 3023WAT      O23019   2.337   4.588   9.373
 3023WAT     H123020   2.387   4.541   9.440
 3023WAT     H223021   2.248   4.553   9.380
 3024WAT      O23022   3.393   2.685   2.538
 3024WAT     H123023   3.402   2.597   2.574
 3024WAT     H223024   3.472   2.731   2.566
 3025WAT      O23025   1.728   5.110   0.587
 3025WAT     H123026   1.716   5.100   0.682
 3025WAT     H223027   1.693   5.029   0.550
 3026WAT      O23028   1.384   5.365   0.409
 3026WAT     H123029   1.473   5.328   0.407
 3026WAT     H223030   1.331   5.297   0.451
 3027WAT      O23031   3.101   4.560   1.888
 3027WAT     H123032   3.069   4.522   1.969
 3027WAT     H223033   3.068   4.650   1.889
 3028WAT      O23034   0.963   3.353   8.660
 3028WAT     H123035   0.941   3.260   8.668
 3028WAT     H223036   0.878   3.396   8.651
 3029WAT      O23037   0.591   0.152   8.454
 3029WAT     H123038   0.501   0.185   8.448
 3029WAT     H223039   0.628   0.168   8.367
 3030WAT      O23040   5.465   1.993  10.346
 3030WAT     H123041   5.508   1.938  10.281
 3030WAT     H223042   5.536   2.033  10.396
 3031WAT      O23043   4.149   0.969   1.010
 3031WAT     H123044   4.100   0.887   1.013
 3031WAT     H223045   4.219   0.958   1.076
 3032WAT      O23046   5.908   1.350   0.695
 3032WAT     H123047   5.818   1.377   0.712
 3032WAT     H223048   5.918   1.267   0.742
 3033WAT      O23049   5.362   5.430   7.779
 3033WAT     H123050   5.316   5.346   7.768
 3033WAT     H223051   5.454   5.409   7.768
 3034WAT      O23052   3.486   2.528   0.737
 3034WAT     H123053   3.508   2.530   0.830
 3034WAT     H223054   3.536   2.601   0.699
 3035WAT      O23055   1.923   5.156  12.533
 3035WAT     H123056   1.850   5.118  12.485
 3035WAT     H223057   1.901   5.248  12.542
 3036WAT      O23058   3.502   4.627   2.047
 3036WAT     H123059   3.484   4.535   2.064
 3036WAT     H223060   3.593   4.628   2.017
 3037WAT      O23061   1.208   2.220  12.632
 3037WAT     H123062   1.140   2.224  12.699
 3037WAT     H223063   1.281   2.175  12.674
 3038WAT      O23064   0.401   1.735   9.825
 3038WAT     H123065   0.484   1.736   9.778
 3038WAT     H223066   0.352   1.662   9.786
 3039WAT      O23067   6.177   5.904   4.709
 3039WAT     H123068   6.153   5.977   4.652
 3039WAT     H223069   6.194   5.945   4.794
 3040WAT      O23070   4.756   1.855  12.609
 3040WAT     H123071   4.747   1.868  12.514
 3040WAT     H223072   4.666   1.854  12.642
 3041WAT      O23073   1.245   1.105  10.439
 3041WAT     H123074   1.230   1.195  10.468
 3041WAT     H223075   1.209   1.051  10.509
 3042WAT      O23076   6.017   1.648   1.143
 3042WAT     H123077   5.956   1.594   1.193
 3042WAT     H223078   5.980   1.650   1.054
 3043WAT      O23079   0.606   5.455   0.812
 3043WAT     H123080   0.551   5.533   0.822
 3043WAT     H223081   0.606   5.438   0.717
 3044WAT      O23082   2.469   5.178   1.118
 3044WAT     H123083   2.502   5.153   1.205
 3044WAT     H223084   2.471   5.274   1.119
 3045WAT      O23085   0.789   0.227   9.052
 3045WAT     H123086   0.771   0.306   9.001
 3045WAT     H223087   0.885   0.220   9.051
 3046WAT      O23088   4.688   5.768   1.180
 3046WAT     H123089   4.714   5.804   1.095
 3046WAT     H223090   4.671   5.845   1.235
 3047WAT      O23091   4.589   0.458  11.231
 3047WAT     H123092   4.656   0.526  11.242
 3047WAT     H223093   4.616   0.387  11.290
 3048WAT      O23094   3.113   3.581   8.935
 3048WAT     H123095   3.186   3.582   8.873
 3048WAT     H223096   3.049   3.642   8.897
 3049WAT      O23097   2.983   2.142   8.874
 3049WAT     H123098   2.962   2.104   8.789
 3049WAT     H223099   2.902   2.186   8.901
 3050WAT      O23100   1.213   5.619  12.631
 3050WAT     H123101   1.199   5.662  12.715
 3050WAT     H223102   1.284   5.667  12.590
 3051WAT      O23103   4.709   0.518   1.119
 3051WAT     H123104   4.803   0.530   1.107
 3051WAT     H223105   4.671   0.599   1.086
 3052WAT      O23106   4.626   2.129   8.952
 3052WAT     H123107   4.641   2.037   8.973
 3052WAT     H223108   4.535   2.131   8.920
 3053WAT      O23109   0.963   3.559  11.342
 3053WAT     H123110   0.946   3.640  11.392
 3053WAT     H223111   1.040   3.521  11.384
 3054WAT      O23112   4.480   0.375   1.871
 3054WAT     H123113   4.502   0.460   1.833
 3054WAT     H223114   4.562   0.326   1.871
 3055WAT      O23115   0.606   1.614  12.392
 3055WAT     H123116   0.631   1.637  12.481
 3055WAT     H223117   0.658   1.672  12.336
 3056WAT      O23118   3.961   6.203  11.546
 3056WAT     H123119   3.990   6.196  11.637
 3056WAT     H223120   3.880   6.152  11.542
 3057WAT      O23121   2.426   4.161  11.868
 3057WAT     H123122   2.473   4.184  11.788
 3057WAT     H223123   2.343   4.124  11.838
 3058WAT      O23124   5.862   2.847   1.144
 3058WAT     H123125   5.905   2.776   1.097
 3058WAT     H223126   5.933   2.907   1.168
 3059WAT      O23127   1.925   5.646   9.823
 3059WAT     H123128   1.847   5.637   9.768
 3059WAT     H223129   1.893   5.636   9.913
 3060WAT      O23130   5.517   5.963  12.352
 3060WAT     H123131   5.432   5.990  12.318
 3060WAT     H223132   5.510   5.975  12.447
 3061WAT      O23133   5.241   1.294   8.398
 3061WAT     H123134   5.169   1.342   8.437
 3061WAT     H223135   5.283   1.249   8.472
 3062WAT      O23136   1.565   0.730   0.672
 3062WAT     H123137   1.491   0.737   0.611
 3062WAT     H223138   1.535   0.668   0.738
 3063WAT      O23139   0.600   2.230  11.964
 3063WAT     H123140   0.535   2.282  11.917
 3063WAT     H223141   0.553   2.150  11.987
 3064WAT      O23142   5.863   0.437  10.266
 3064WAT     H123143   5.901   0.521  10.291
 3064WAT     H223144   5.859   0.388  10.348
 3065WAT      O23145   5.030   3.266  11.363
 3065WAT     H123146   5.029   3.316  11.445
 3065WAT     H223147   4.970   3.314  11.306
 3066WAT      O23148   5.736   2.012   9.376
 3066WAT     H123149   5.822   2.046   9.354
 3066WAT     H223150   5.713   1.954   9.304
 3067WAT      O23151   2.017   1.483  10.722
 3067WAT     H123152   2.018   1.444  10.635
 3067WAT     H223153   1.957   1.558  10.715
 3068WAT      O23154   4.716   1.671   1.372
 3068WAT     H123155   4.713   1.742   1.308
 3068WAT     H223156   4.808   1.645   1.374
 3069WAT      O23157   4.541   4.912   0.967
 3069WAT     H123158   4.536   4.996   1.013
 3069WAT     H223159   4.629   4.910   0.929
 3070WAT      O23160   4.351   2.035   8.388
 3070WAT     H123161   4.372   1.979   8.313
 3070WAT     H223162   4.271   2.081   8.361
 3071WAT      O23163   1.092   3.434  10.676
 3071WAT     H123164   1.108   3.527  10.691
 3071WAT     H223165   1.111   3.420  10.583
 3072WAT      O23166   4.235   5.312   8.864
 3072WAT     H123167   4.294   5.311   8.939
 3072WAT     H223168   4.220   5.405   8.847
 3073WAT      O23169   5.001   1.279   2.678
 3073WAT     H123170   5.044   1.198   2.651
 3073WAT     H223171   4.976   1.322   2.596
 3074WAT      O23172   4.184   5.394  11.059
 3074WAT     H123173   4.188   5.418  10.966
 3074WAT     H223174   4.211   5.302  11.060
 3075WAT      O23175   1.400   5.093   0.640
 3075WAT     H123176   1.462   5.022   0.623
 3075WAT     H223177   1.448   5.154   0.695
 3076WAT      O23178   1.989   2.974  10.893
 3076WAT     H123179   2.060   2.942  10.838
 3076WAT     H223180   1.942   3.036  10.838
 3077WAT      O23181   2.291   0.372  10.169
 3077WAT     H123182   2.366   0.343  10.221
 3077WAT     H223183   2.234   0.416  10.232
 3078WAT      O23184   5.539   3.451  10.407
 3078WAT     H123185   5.515   3.364  10.374
 3078WAT     H223186   5.600   3.434  10.479
 3079WAT      O23187   4.070   1.776   2.794
 3079WAT     H123188   3.997   1.722   2.826
 3079WAT     H223189   4.072   1.759   2.700
 3080WAT      O23190   2.361   5.234  12.585
 3080WAT     H123191   2.383   5.156  12.637
 3080WAT     H223192   2.422   5.231  12.511
 3081WAT      O23193   2.080   4.683  12.657
 3081WAT     H123194   2.165   4.645  12.680
 3081WAT     H223195   2.020   4.609  12.658
 3082WAT      O23196   4.650   2.991  10.041
 3082WAT     H123197   4.656   3.046  10.119
 3082WAT     H223198   4.610   2.909  10.072
 3083WAT      O23199   1.943   2.824   9.056
 3083WAT     H123200   2.016   2.801   8.998
 3083WAT     H223201   1.883   2.874   9.000
 3084WAT      O23202   0.108   0.321   8.173
 3084WAT     H123203   0.092   0.239   8.219
 3084WAT     H223204   0.173   0.366   8.227
 3085WAT      O23205   3.558   2.431   4.026
 3085WAT     H123206   3.581   2.518   3.992
 3085WAT     H223207   3.642   2.386   4.034
 3086WAT      O23208   5.183   4.840   3.018
 3086WAT     H123209   5.129   4.774   3.061
 3086WAT     H223210   5.131   4.870   2.944
 3087WAT      O23211   0.215   4.685   8.917
 3087WAT     H123212   0.235   4.629   8.992
 3087WAT     H223213   0.240   4.632   8.841
 3088WAT      O23214   2.979   3.652   2.558
 3088WAT     H123215   3.071   3.665   2.581
 3088WAT     H223216   2.951   3.735   2.521
 3089WAT      O23217   3.451   2.301   0.631
 3089WAT     H123218   3.419   2.320   0.543
 3089WAT     H223219   3.459   2.386   0.673
 3090WAT      O23220   3.472   2.856   2.948
 3090WAT     H123221   3.416   2.872   3.024
 3090WAT     H223222   3.415   2.869   2.873
 3091WAT      O23223   5.502   5.547  11.597
 3091WAT     H123224   5.482   5.629  11.553
 3091WAT     H223225   5.466   5.557  11.685
 3092WAT      O23226   2.540   5.439   0.016
 3092WAT     H123227   2.503   5.515   0.061
 3092WAT     H223228   2.479   5.368   0.036
 3093WAT      O23229   6.030   1.678   7.553
 3093WAT     H123230   5.991   1.711   7.471
 3093WAT     H223231   6.123   1.699   7.545
 3094WAT      O23232   3.069   4.039   1.716
 3094WAT     H123233   3.067   4.027   1.811
 3094WAT     H223234   3.050   3.953   1.680
 3095WAT      O23235   5.907   2.114  10.441
 3095WAT     H123236   5.921   2.207  10.421
 3095WAT     H223237   5.991   2.072  10.423
 3096WAT      O23238   5.293   4.369   8.179
 3096WAT     H123239   5.283   4.461   8.152
 3096WAT     H223240   5.205   4.343   8.208
 3097WAT      O23241   0.178   2.620   9.457
 3097WAT     H123242   0.141   2.551   9.402
 3097WAT     H223243   0.102   2.671   9.485
 3098WAT      O23244   3.453   2.913   4.225
 3098WAT     H123245   3.368   2.939   4.261
 3098WAT     H223246   3.489   2.853   4.289
 3099WAT      O23247   3.615   2.791  11.269
 3099WAT     H123248   3.621   2.698  11.246
 3099WAT     H223249   3.546   2.825  11.212
 3100WAT      O23250   5.458   3.830   0.477
 3100WAT     H123251   5.383   3.861   0.528
 3100WAT     H223252   5.493   3.909   0.435
 3101WAT      O23253   5.405   1.322  11.625
 3101WAT     H123254   5.482   1.331  11.681
 3101WAT     H223255   5.410   1.232  11.592
 3102WAT      O23256   4.378   5.425  12.620
 3102WAT     H123257   4.305   5.467  12.575
 3102WAT     H223258   4.452   5.483  12.605
 3103WAT      O23259   3.619   1.561  11.094
 3103WAT     H123260   3.685   1.499  11.123
 3103WAT     H223261   3.564   1.576  11.171
 3104WAT      O23262   1.731   4.141  12.126
 3104WAT     H123263   1.691   4.201  12.063
 3104WAT     H223264   1.783   4.197  12.183
 3105WAT      O23265   3.666   4.423   0.853
 3105WAT     H123266   3.755   4.459   0.862
 3105WAT     H223267   3.664   4.387   0.764
 3106WAT      O23268   0.557   2.474   4.772
 3106WAT     H123269   0.513   2.527   4.839
 3106WAT     H223270   0.612   2.414   4.822
 3107WAT      O23271   1.020   3.821  12.644
 3107WAT     H123272   1.080   3.896  12.650
 3107WAT     H223273   1.043   3.779  12.561
 3108WAT      O23274   2.035   5.812   0.763
 3108WAT     H123275   2.042   5.899   0.723
 3108WAT     H223276   2.019   5.753   0.690
 3109WAT      O23277   3.615   1.473   0.854
 3109WAT     H123278   3.664   1.458   0.773
 3109WAT     H223279   3.602   1.568   0.856
 3110WAT      O23280   5.951   0.503   3.010
 3110WAT     H123281   5.870   0.454   2.996
 3110WAT     H223282   5.982   0.523   2.922
 3111WAT      O23283   3.947   3.759  12.000
 3111WAT     H123284   3.929   3.825  12.067
 3111WAT     H223285   3.990   3.687  12.048
 3112WAT      O23286   3.234   5.686  11.619
 3112WAT     H123287   3.188   5.609  11.653
 3112WAT     H223288   3.263   5.659  11.532
 3113WAT      O23289   2.918   3.104  12.471
 3113WAT     H123290   2.851   3.116  12.403
 3113WAT     H223291   2.894   3.022  12.514
 3114WAT      O23292   5.451   2.679   4.347
 3114WAT     H123293   5.500   2.722   4.277
 3114WAT     H223294   5.361   2.710   4.337
 3115WAT      O23295   2.668   3.425   3.897
 3115WAT     H123296   2.720   3.471   3.830
 3115WAT     H223297   2.733   3.374   3.946
 3116WAT      O23298   2.707   2.533   4.069
 3116WAT     H123299   2.778   2.512   4.130
 3116WAT     H223300   2.640   2.466   4.086
 3117WAT      O23301   2.412   2.670   8.556
 3117WAT     H123302   2.436   2.606   8.623
 3117WAT     H223303   2.454   2.637   8.476
 3118WAT      O23304   0.543   5.392   0.271
 3118WAT     H123305   0.451   5.368   0.276
 3118WAT     H223306   0.544   5.473   0.220
 3119WAT      O23307   2.112   0.677   0.886
 3119WAT     H123308   2.108   0.727   0.804
 3119WAT     H223309   2.173   0.726   0.940
 3120WAT      O23310   2.133   0.454  10.785
 3120WAT     H123311   2.064   0.403  10.742
 3120WAT     H223312   2.086   0.510  10.847
 3121WAT      O23313   1.658   2.342   3.215
 3121WAT     H123314   1.681   2.260   3.258
 3121WAT     H223315   1.696   2.410   3.271
 3122WAT      O23316   2.277   2.141   1.263
 3122WAT     H123317   2.239   2.225   1.239
 3122WAT     H223318   2.371   2.153   1.250
 3123WAT      O23319   2.677   4.317   2.420
 3123WAT     H123320   2.696   4.349   2.331
 3123WAT     H223321   2.615   4.245   2.406
 3124WAT      O23322   4.722   4.598   9.382
 3124WAT     H123323   4.630   4.610   9.358
 3124WAT     H223324   4.751   4.524   9.329
 3125WAT      O23325   4.927   2.719   0.887
 3125WAT     H123326   4.989   2.784   0.919
 3125WAT     H223327   4.966   2.634   0.910
 3126WAT      O23328   4.770   0.329   8.537
 3126WAT     H123329   4.812   0.415   8.533
 3126WAT     H223330   4.735   0.316   8.449
 3127WAT      O23331   2.129   2.044  10.048
 3127WAT     H123332   2.185   2.059   9.971
 3127WAT     H223333   2.137   1.950  10.065
 3128WAT      O23334   1.278   4.066  10.239
 3128WAT     H123335   1.273   4.147  10.188
 3128WAT     H223336   1.189   4.031  10.238
 3129WAT      O23337   5.090   5.958   2.578
 3129WAT     H123338   5.125   6.030   2.630
 3129WAT     H223339   5.040   5.905   2.640
 3130WAT      O23340   0.032   1.780   9.033
 3130WAT     H123341   0.050   1.761   9.126
 3130WAT     H223342   0.009   1.694   8.996
 3131WAT      O23343   1.978   2.569   3.529
 3131WAT     H123344   1.970   2.484   3.573
 3131WAT     H223345   2.049   2.556   3.466
 3132WAT      O23346   1.268   0.105   2.372
 3132WAT     H123347   1.226   0.034   2.420
 3132WAT     H223348   1.195   0.150   2.328
 3133WAT      O23349   2.926   3.750   2.997
 3133WAT     H123350   2.940   3.686   3.067
 3133WAT     H223351   2.914   3.833   3.042
 3134WAT      O23352   6.008   1.222   2.880
 3134WAT     H123353   6.069   1.209   2.807
 3134WAT     H223354   6.064   1.230   2.957
 3135WAT      O23355   5.962   4.392  10.365
 3135WAT     H123356   6.045   4.371  10.324
 3135WAT     H223357   5.896   4.353  10.308
 3136WAT      O23358   5.067   1.177  11.851
 3136WAT     H123359   5.041   1.085  11.842
 3136WAT     H223360   5.066   1.212  11.762
 3137WAT      O23361   6.045   3.749   1.014
 3137WAT     H123362   5.955   3.716   1.015
 3137WAT     H223363   6.060   3.780   1.103
 3138WAT      O23364   2.951   3.380   9.739
 3138WAT     H123365   3.018   3.445   9.720
 3138WAT     H223366   2.998   3.297   9.741
 3139WAT      O23367   4.456   5.555   9.229
 3139WAT     H123368   4.378   5.603   9.200
 3139WAT     H223369   4.526   5.588   9.172
 3140WAT      O23370   5.421   3.522   4.716
 3140WAT     H123371   5.471   3.579   4.775
 3140WAT     H223372   5.451   3.434   4.737
 3141WAT      O23373   3.734   0.812   0.242
 3141WAT     H123374   3.769   0.747   0.181
 3141WAT     H223375   3.811   0.859   0.274
 3142WAT      O23376   5.561   5.637   8.052
 3142WAT     H123377   5.630   5.692   8.015
 3142WAT     H223378   5.484   5.656   7.998
 3143WAT      O23379   6.012   3.054   3.565
 3143WAT     H123380   6.099   3.015   3.577
 3143WAT     H223381   5.997   3.104   3.645
 3144WAT      O23382   0.317   4.067   2.608
 3144WAT     H123383   0.227   4.045   2.583
 3144WAT     H223384   0.340   4.003   2.674
 3145WAT      O23385   3.147   4.471   8.952
 3145WAT     H123386   3.105   4.528   8.887
 3145WAT     H223387   3.084   4.467   9.024
 3146WAT      O23388   5.474   3.042   3.025
 3146WAT     H123389   5.544   3.086   2.976
 3146WAT     H223390   5.459   3.098   3.101
 3147WAT      O23391   2.514  -0.007  10.385
 3147WAT     H123392   2.524   0.069  10.328
 3147WAT     H223393   2.457   0.023  10.456
 3148WAT      O23394   4.109   5.086   0.354
 3148WAT     H123395   4.120   5.015   0.292
 3148WAT     H223396   4.161   5.158   0.318
 3149WAT      O23397   1.510   5.608  12.337
 3149WAT     H123398   1.557   5.606  12.254
 3149WAT     H223399   1.579   5.608  12.404
 3150WAT      O23400   6.198   3.792  12.080
 3150WAT     H123401   6.157   3.745  12.008
 3150WAT     H223402   6.224   3.876  12.042
 3151WAT      O23403   3.531   2.385   9.633
 3151WAT     H123404   3.534   2.374   9.728
 3151WAT     H223405   3.440   2.408   9.615
 3152WAT      O23406   0.247   0.042   7.975
 3152WAT     H123407   0.319   0.070   8.031
 3152WAT     H223408   0.191   0.119   7.969
 3153WAT      O23409   2.919   1.951   3.641
 3153WAT     H123410   2.861   2.026   3.630
 3153WAT     H223411   2.956   1.936   3.554
 3154WAT      O23412   0.978   0.854   3.326
 3154WAT     H123413   1.055   0.908   3.307
 3154WAT     H223414   0.905   0.916   3.326
 3155WAT      O23415   0.846   5.515  10.635
 3155WAT     H123416   0.812   5.426  10.627
 3155WAT     H223417   0.923   5.517  10.577
 3156WAT      O23418   3.635   4.270   1.842
 3156WAT     H123419   3.726   4.296   1.856
 3156WAT     H223420   3.618   4.294   1.751
 3157WAT      O23421   1.122   5.726   4.305
 3157WAT     H123422   1.152   5.716   4.215
 3157WAT     H223423   1.200   5.749   4.355
 3158WAT      O23424   3.082   4.422   1.316
 3158WAT     H123425   3.122   4.360   1.255
 3158WAT     H223426   3.096   4.383   1.403
 3159WAT      O23427   0.066   5.617   0.797
 3159WAT     H123428   0.059   5.667   0.716
 3159WAT     H223429  -0.010   5.559   0.797
 3160WAT      O23430   3.528   5.706  12.154
 3160WAT     H123431   3.557   5.662  12.234
 3160WAT     H223432   3.511   5.634  12.093
 3161WAT      O23433   2.282   3.825   1.862
 3161WAT     H123434   2.335   3.815   1.783
 3161WAT     H223435   2.210   3.883   1.836
 3162WAT      O23436   5.427   2.491   1.879
 3162WAT     H123437   5.431   2.526   1.790
 3162WAT     H223438   5.477   2.409   1.874
 3163WAT      O23439   4.720   0.251   1.817
 3163WAT     H123440   4.741   0.339   1.851
 3163WAT     H223441   4.780   0.193   1.863
 3164WAT      O23442   5.662   3.529   1.575
 3164WAT     H123443   5.629   3.616   1.598
 3164WAT     H223444   5.747   3.546   1.534
 3165WAT      O23445   3.169   2.895  11.078
 3165WAT     H123446   3.130   2.976  11.108
 3165WAT     H223447   3.112   2.866  11.007
 3166WAT      O23448   2.697   2.656   9.829
 3166WAT     H123449   2.695   2.739   9.781
 3166WAT     H223450   2.604   2.633   9.840
 3167WAT      O23451   2.229   5.985   8.456
 3167WAT     H123452   2.241   6.079   8.441
 3167WAT     H223453   2.135   5.975   8.469
 3168WAT      O23454   3.194   2.837   3.117
 3168WAT     H123455   3.100   2.841   3.095
 3168WAT     H223456   3.224   2.927   3.110
 3169WAT      O23457   3.036   3.910  11.660
 3169WAT     H123458   2.973   3.859  11.711
 3169WAT     H223459   3.074   3.971  11.723
 3170WAT      O23460   3.190   3.744   3.606
 3170WAT     H123461   3.195   3.787   3.520
 3170WAT     H223462   3.230   3.658   3.592
 3171WAT      O23463   4.940   1.876   2.140
 3171WAT     H123464   5.023   1.895   2.097
 3171WAT     H223465   4.960   1.810   2.206
 3172WAT      O23466   3.514   0.985  10.474
 3172WAT     H123467   3.506   0.950  10.385
 3172WAT     H223468   3.435   0.955  10.519
 3173WAT      O23469   4.384   0.957  12.416
 3173WAT     H123470   4.299   0.917  12.396
 3173WAT     H223471   4.403   0.929  12.505
 3174WAT      O23472   2.763   3.697   9.020
 3174WAT     H123473   2.849   3.733   9.041
 3174WAT     H223474   2.701   3.768   9.040
 3175WAT      O23475   4.186   1.450  11.452
 3175WAT     H123476   4.201   1.373  11.397
 3175WAT     H223477   4.235   1.520  11.410
 3176WAT      O23478   2.376   1.018   1.386
 3176WAT     H123479   2.302   1.056   1.339
 3176WAT     H223480   2.440   0.998   1.317
 3177WAT      O23481   5.392   5.628   0.170
 3177WAT     H123482   5.369   5.605   0.260
 3177WAT     H223483   5.467   5.688   0.178
 3178WAT      O23484   5.844   3.193   9.738
 3178WAT     H123485   5.755   3.204   9.770
 3178WAT     H223486   5.899   3.207   9.815
 3179WAT      O23487   3.366   5.996  12.071
 3179WAT     H123488   3.287   6.017  12.120
 3179WAT     H223489   3.349   5.908  12.035
 3180WAT      O23490   0.209   1.854  10.383
 3180WAT     H123491   0.160   1.780  10.346
 3180WAT     H223492   0.280   1.868  10.321
 3181WAT      O23493   2.078   0.514   0.585
 3181WAT     H123494   2.088   0.461   0.664
 3181WAT     H223495   2.063   0.603   0.617
 3182WAT      O23496   0.181   6.038   9.966
 3182WAT     H123497   0.202   6.110   9.907
 3182WAT     H223498   0.259   5.982   9.963
 3183WAT      O23499   6.066   4.520  12.436
 3183WAT     H123500   6.151   4.478  12.427
 3183WAT     H223501   6.039   4.500  12.526
 3184WAT      O23502   0.777   4.124  10.404
 3184WAT     H123503   0.701   4.131  10.346
 3184WAT     H223504   0.744   4.077  10.481
 3185WAT      O23505   4.872   1.645   7.949
 3185WAT     H123506   4.859   1.599   7.866
 3185WAT     H223507   4.826   1.592   8.013
 3186WAT      O23508   2.592   0.456   3.545
 3186WAT     H123509   2.601   0.376   3.494
 3186WAT     H223510   2.620   0.526   3.486
 3187WAT      O23511   3.232   0.777   1.768
 3187WAT     H123512   3.231   0.746   1.859
 3187WAT     H223513   3.149   0.822   1.757
 3188WAT      O23514   1.423   2.387  11.619
 3188WAT     H123515   1.448   2.396  11.527
 3188WAT     H223516   1.392   2.297  11.626
 3189WAT      O23517   2.988   1.464  10.944
 3189WAT     H123518   3.017   1.373  10.943
 3189WAT     H223519   3.053   1.510  10.891
 3190WAT      O23520   1.581   2.790   1.812
 3190WAT     H123521   1.650   2.846   1.849
 3190WAT     H223522   1.509   2.850   1.794
 3191WAT      O23523   2.762   1.959   2.124
 3191WAT     H123524   2.678   1.921   2.150
 3191WAT     H223525   2.780   1.920   2.038
 3192WAT      O23526   0.186   4.407   9.890
 3192WAT     H123527   0.278   4.429   9.902
 3192WAT     H223528   0.162   4.449   9.807
 3193WAT      O23529   4.460   5.194   0.066
 3193WAT     H123530   4.429   5.274   0.022
 3193WAT     H223531   4.428   5.123   0.010
 3194WAT      O23532   4.269   2.036  12.025
 3194WAT     H123533   4.330   2.104  11.999
 3194WAT     H223534   4.225   2.010  11.944
 3195WAT      O23535   2.758   4.324   2.140
 3195WAT     H123536   2.732   4.406   2.097
 3195WAT     H223537   2.690   4.262   2.115
 3196WAT      O23538   4.380   0.873   0.630
 3196WAT     H123539   4.411   0.792   0.672
 3196WAT     H223540   4.421   0.943   0.681
 3197WAT      O23541   4.432   1.984   3.703
 3197WAT     H123542   4.422   1.949   3.615
 3197WAT     H223543   4.516   1.947   3.734
 3198WAT      O23544   5.698   4.489   8.805
 3198WAT     H123545   5.726   4.580   8.798
 3198WAT     H223546   5.716   4.451   8.719
 3199WAT      O23547   2.076   6.029   2.232
 3199WAT     H123548   1.994   6.065   2.265
 3199WAT     H223549   2.069   5.935   2.247
 3200WAT      O23550   0.657   1.402   3.180
 3200WAT     H123551   0.737   1.361   3.213
 3200WAT     H223552   0.640   1.473   3.241
 3201WAT      O23553   4.400   1.920   9.045
 3201WAT     H123554   4.351   1.838   9.042
 3201WAT     H223555   4.475   1.902   9.101
 3202WAT      O23556   0.144   0.079  12.171
 3202WAT     H123557   0.138   0.173  12.155
 3202WAT     H223558   0.112   0.039  12.090
 3203WAT      O23559   4.085   3.246   3.016
 3203WAT     H123560   4.054   3.178   3.076
 3203WAT     H223561   4.066   3.329   3.060
 3204WAT      O23562   3.457   1.673   9.653
 3204WAT     H123563   3.535   1.687   9.707
 3204WAT     H223564   3.416   1.596   9.691
 3205WAT      O23565   4.690   1.562   0.923
 3205WAT     H123566   4.689   1.467   0.932
 3205WAT     H223567   4.659   1.594   1.008
 3206WAT      O23568   2.251   0.255   3.590
 3206WAT     H123569   2.197   0.181   3.562
 3206WAT     H223570   2.339   0.217   3.601
 3207WAT      O23571   5.021   1.771  12.655
 3207WAT     H123572   5.005   1.685  12.692
 3207WAT     H223573   4.936   1.815  12.657
 3208WAT      O23574   5.745   3.147   1.277
 3208WAT     H123575   5.749   3.051   1.284
 3208WAT     H223576   5.657   3.169   1.307
 3209WAT      O23577   2.616   0.347   0.384
 3209WAT     H123578   2.694   0.326   0.333
 3209WAT     H223579   2.544   0.343   0.321
 3210WAT      O23580   3.633   3.622   9.494
 3210WAT     H123581   3.676   3.543   9.526
 3210WAT     H223582   3.651   3.623   9.400
 3211WAT      O23583   0.992   4.776   9.063
 3211WAT     H123584   0.998   4.845   9.129
 3211WAT     H223585   0.948   4.818   8.989
 3212WAT      O23586   1.991   3.511   9.352
 3212WAT     H123587   2.077   3.503   9.394
 3212WAT     H223588   1.929   3.486   9.419
 3213WAT      O23589   0.595   1.175   3.990
 3213WAT     H123590   0.568   1.206   3.904
 3213WAT     H223591   0.645   1.248   4.027
 3214WAT      O23592   2.349   4.529  11.677
 3214WAT     H123593   2.337   4.621  11.700
 3214WAT     H223594   2.302   4.517  11.595
 3215WAT      O23595   2.940   2.783   3.201
 3215WAT     H123596   2.959   2.689   3.201
 3215WAT     H223597   2.976   2.815   3.285
 3216WAT      O23598   4.884   4.416  11.181
 3216WAT     H123599   4.848   4.409  11.092
 3216WAT     H223600   4.813   4.454  11.232
 3217WAT      O23601   5.630   0.063   8.061
 3217WAT     H123602   5.686   0.086   7.987
 3217WAT     H223603   5.606  -0.029   8.045
 3218WAT      O23604   2.337   1.281   0.790
 3218WAT     H123605   2.291   1.260   0.871
 3218WAT     H223606   2.329   1.376   0.781
 3219WAT      O23607   0.079   3.595   9.892
 3219WAT     H123608   0.013   3.562   9.952
 3219WAT     H223609   0.035   3.599   9.807
 3220WAT      O23610   4.149   5.015   9.703
 3220WAT     H123611   4.203   4.936   9.702
 3220WAT     H223612   4.212   5.087   9.717
 3221WAT      O23613   5.630   4.699  11.326
 3221WAT     H123614   5.577   4.774  11.300
 3221WAT     H223615   5.569   4.625  11.327
 3222WAT      O23616   0.879   5.991   3.416
 3222WAT     H123617   0.886   5.902   3.380
 3222WAT     H223618   0.786   6.013   3.408
 3223WAT      O23619   4.117   0.790   3.411
 3223WAT     H123620   4.088   0.701   3.433
 3223WAT     H223621   4.199   0.801   3.460
 3224WAT      O23622   1.088   2.106   1.768
 3224WAT     H123623   1.139   2.062   1.836
 3224WAT     H223624   1.114   2.063   1.686
 3225WAT      O23625   3.890   3.887   1.464
 3225WAT     H123626   3.800   3.857   1.473
 3225WAT     H223627   3.941   3.827   1.517
 3226WAT      O23628   3.086   2.050   9.520
 3226WAT     H123629   3.102   2.096   9.438
 3226WAT     H223630   3.000   2.009   9.507
 3227WAT      O23631   4.099   4.422   9.531
 3227WAT     H123632   4.191   4.398   9.520
 3227WAT     H223633   4.053   4.338   9.533
 3228WAT      O23634   6.242   1.885   3.239
 3228WAT     H123635   6.184   1.879   3.163
 3228WAT     H223636   6.183   1.902   3.313
 3229WAT      O23637   3.851   5.362   1.900
 3229WAT     H123638   3.866   5.455   1.917
 3229WAT     H223639   3.883   5.349   1.811
 3230WAT      O23640   0.819   0.251  11.635
 3230WAT     H123641   0.898   0.208  11.670
 3230WAT     H223642   0.807   0.212  11.549
 3231WAT      O23643   1.875   0.337   1.666
 3231WAT     H123644   1.839   0.285   1.595
 3231WAT     H223645   1.802   0.393   1.694
 3232WAT      O23646   3.420   0.390   3.422
 3232WAT     H123647   3.490   0.348   3.471
 3232WAT     H223648   3.340   0.368   3.471
 3233WAT      O23649   4.986   4.554   9.038
 3233WAT     H123650   5.035   4.534   8.958
 3233WAT     H223651   5.052   4.574   9.103
 3234WAT      O23652   3.091   0.468   9.737
 3234WAT     H123653   3.019   0.411   9.711
 3234WAT     H223654   3.161   0.408   9.764
 3235WAT      O23655   2.174   0.105   8.216
 3235WAT     H123656   2.110   0.096   8.146
 3235WAT     H223657   2.249   0.148   8.175
 3236WAT      O23658   4.730   5.964   3.567
 3236WAT     H123659   4.762   6.040   3.617
 3236WAT     H223660   4.809   5.915   3.544
 3237WAT      O23661   6.186   0.330   4.122
 3237WAT     H123662   6.149   0.255   4.169
 3237WAT     H223663   6.235   0.290   4.049
 3238WAT      O23664   2.993   0.107  11.616
 3238WAT     H123665   3.044   0.161  11.676
 3238WAT     H223666   2.932   0.167  11.574
 3239WAT      O23667   4.494   2.877   9.129
 3239WAT     H123668   4.469   2.961   9.090
 3239WAT     H223669   4.590   2.878   9.126
 3240WAT      O23670   5.377   0.922   9.332
 3240WAT     H123671   5.317   0.997   9.334
 3240WAT     H223672   5.388   0.903   9.238
 3241WAT      O23673   2.408   5.137   1.899
 3241WAT     H123674   2.367   5.052   1.913
 3241WAT     H223675   2.386   5.159   1.808
 3242WAT      O23676   2.965   3.183  11.727
 3242WAT     H123677   2.992   3.126  11.654
 3242WAT     H223678   3.030   3.166  11.795
 3243WAT      O23679   2.970   0.487   8.036
 3243WAT     H123680   2.948   0.451   8.122
 3243WAT     H223681   2.979   0.581   8.051
 3244WAT      O23682   1.804   3.302  12.009
 3244WAT     H123683   1.785   3.221  11.962
 3244WAT     H223684   1.888   3.331  11.974
 3245WAT      O23685   3.610   1.396   2.263
 3245WAT     H123686   3.614   1.309   2.303
 3245WAT     H223687   3.634   1.456   2.333
 3246WAT      O23688   2.068   0.362   0.239
 3246WAT     H123689   2.020   0.434   0.282
 3246WAT     H223690   2.108   0.314   0.311
 3247WAT      O23691   2.312   4.839   7.750
 3247WAT     H123692   2.383   4.828   7.814
 3247WAT     H223693   2.286   4.930   7.758
 3248WAT      O23694   4.833   1.270   1.153
 3248WAT     H123695   4.873   1.300   1.071
 3248WAT     H223696   4.762   1.333   1.169
 3249WAT      O23697   0.004   0.053   7.679
 3249WAT     H123698   0.035   0.137   7.713
 3249WAT     H223699   0.059  -0.012   7.722
 3250WAT      O23700   2.353   5.369   2.529
 3250WAT     H123701   2.434   5.396   2.486
 3250WAT     H223702   2.380   5.305   2.595
 3251WAT      O23703   2.558   3.350   4.449
 3251WAT     H123704   2.526   3.440   4.457
 3251WAT     H223705   2.595   3.346   4.361
 3252WAT      O23706   0.075   4.716   3.191
 3252WAT     H123707   0.002   4.711   3.130
 3252WAT     H223708   0.134   4.782   3.155
 3253WAT      O23709   0.901   5.363   2.693
 3253WAT     H123710   0.950   5.315   2.759
 3253WAT     H223711   0.877   5.297   2.627
 3254WAT      O23712   3.581   4.829  11.115
 3254WAT     H123713   3.501   4.778  11.100
 3254WAT     H223714   3.621   4.787  11.191
 3255WAT      O23715   3.809   2.250   8.299
 3255WAT     H123716   3.878   2.293   8.247
 3255WAT     H223717   3.783   2.175   8.247
 3256WAT      O23718   1.392   2.787   0.943
 3256WAT     H123719   1.371   2.880   0.950
 3256WAT     H223720   1.374   2.765   0.852
 3257WAT      O23721   2.017   0.576   3.468
 3257WAT     H123722   1.938   0.590   3.416
 3257WAT     H223723   2.067   0.657   3.459
 3258WAT      O23724   1.665   0.927   9.615
 3258WAT     H123725   1.706   0.918   9.529
 3258WAT     H223726   1.588   0.981   9.600
 3259WAT      O23727   1.253   2.991   0.308
 3259WAT     H123728   1.164   2.961   0.331
 3259WAT     H223729   1.297   3.001   0.393
 3260WAT      O23730   5.171   4.306   2.416
 3260WAT     H123731   5.185   4.250   2.340
 3260WAT     H223732   5.247   4.364   2.417
 3261WAT      O23733   0.391   1.240  10.908
 3261WAT     H123734   0.463   1.262  10.849
 3261WAT     H223735   0.375   1.147  10.893
 3262WAT      O23736   1.115   1.211   0.368
 3262WAT     H123737   1.210   1.198   0.372
 3262WAT     H223738   1.095   1.216   0.275
 3263WAT      O23739   3.721   3.096   9.367
 3263WAT     H123740   3.637   3.052   9.382
 3263WAT     H223741   3.787   3.033   9.394
 3264WAT      O23742   4.438   1.831   4.524
 3264WAT     H123743   4.396   1.917   4.531
 3264WAT     H223744   4.367   1.772   4.498
 3265WAT      O23745   5.227   1.147   9.300
 3265WAT     H123746   5.220   1.229   9.348
 3265WAT     H223747   5.141   1.134   9.262
 3266WAT      O23748   2.699   1.593   2.768
 3266WAT     H123749   2.636   1.664   2.779
 3266WAT     H223750   2.756   1.598   2.844
 3267WAT      O23751   1.170   2.544   3.944
 3267WAT     H123752   1.161   2.600   3.866
 3267WAT     H223753   1.164   2.605   4.018
 3268WAT      O23754   5.172   1.560   4.056
 3268WAT     H123755   5.150   1.484   4.110
 3268WAT     H223756   5.249   1.532   4.006
 3269WAT      O23757   2.905   4.166   0.628
 3269WAT     H123758   2.851   4.222   0.572
 3269WAT     H223759   2.938   4.224   0.697
 3270WAT      O23760   0.151   4.381  12.129
 3270WAT     H123761   0.123   4.410  12.042
 3270WAT     H223762   0.213   4.311  12.113
 3271WAT      O23763   4.524   4.103   0.500
 3271WAT     H123764   4.511   4.010   0.519
 3271WAT     H223765   4.566   4.138   0.579
 3272WAT      O23766   4.289   5.808  11.864
 3272WAT     H123767   4.358   5.753  11.828
 3272WAT     H223768   4.234   5.831  11.789
 3273WAT      O23769   5.986   4.267   0.504
 3273WAT     H123770   6.068   4.274   0.553
 3273WAT     H223771   5.921   4.239   0.569
 3274WAT      O23772   1.874   2.065  12.179
 3274WAT     H123773   1.932   2.010  12.231
 3274WAT     H223774   1.852   2.011  12.103
 3275WAT      O23775   0.779   1.529   8.995
 3275WAT     H123776   0.740   1.501   8.912
 3275WAT     H223777   0.751   1.620   9.004
 3276WAT      O23778   0.251   6.109   3.251
 3276WAT     H123779   0.324   6.080   3.306
 3276WAT     H223780   0.197   6.163   3.308
 3277WAT      O23781   3.390   0.197   3.887
 3277WAT     H123782   3.333   0.257   3.840
 3277WAT     H223783   3.374   0.216   3.980
 3278WAT      O23784   3.862   5.250   1.288
 3278WAT     H123785   3.773   5.220   1.306
 3278WAT     H223786   3.859   5.344   1.306
 3279WAT      O23787   4.789   2.232   1.611
 3279WAT     H123788   4.882   2.210   1.596
 3279WAT     H223789   4.742   2.154   1.582
 3280WAT      O23790   5.208   1.680  12.480
 3280WAT     H123791   5.141   1.717  12.537
 3280WAT     H223792   5.173   1.689  12.391
 3281WAT      O23793   2.722   0.991   9.259
 3281WAT     H123794   2.743   0.940   9.337
 3281WAT     H223795   2.644   1.041   9.284
 3282WAT      O23796   0.769   0.996   8.342
 3282WAT     H123797   0.848   0.980   8.292
 3282WAT     H223798   0.737   1.081   8.311
 3283WAT      O23799   3.433   3.197  10.979
 3283WAT     H123800   3.439   3.124  11.040
 3283WAT     H223801   3.459   3.160  10.895
 3284WAT      O23802   5.927   0.177   1.257
 3284WAT     H123803   5.977   0.240   1.206
 3284WAT     H223804   5.907   0.106   1.195
 3285WAT      O23805   4.821   0.524   0.324
 3285WAT     H123806   4.789   0.510   0.235
 3285WAT     H223807   4.783   0.608   0.351
 3286WAT      O23808   1.966   2.304   0.207
 3286WAT     H123809   1.872   2.322   0.201
 3286WAT     H223810   2.005   2.389   0.229
 3287WAT      O23811   3.203   1.320  11.566
 3287WAT     H123812   3.263   1.270  11.622
 3287WAT     H223813   3.123   1.268  11.564
 3288WAT      O23814   5.068   1.751  10.619
 3288WAT     H123815   5.156   1.726  10.591
 3288WAT     H223816   5.055   1.707  10.703
 3289WAT      O23817   4.952   2.432   1.270
 3289WAT     H123818   4.886   2.472   1.327
 3289WAT     H223819   4.916   2.346   1.249
 3290WAT      O23820   4.974   0.158   7.768
 3290WAT     H123821   5.008   0.147   7.679
 3290WAT     H223822   5.048   0.195   7.817
 3291WAT      O23823   0.962   5.925   4.071
 3291WAT     H123824   0.881   5.948   4.025
 3291WAT     H223825   0.951   5.833   4.094
 3292WAT      O23826   3.034   1.460  11.831
 3292WAT     H123827   3.118   1.414  11.837
 3292WAT     H223828   3.017   1.491  11.920
 3293WAT      O23829   0.911   3.745  11.634
 3293WAT     H123830   0.821   3.751  11.602
 3293WAT     H223831   0.949   3.831  11.617
 3294WAT      O23832   2.037   3.634   3.213
 3294WAT     H123833   2.107   3.683   3.257
 3294WAT     H223834   2.038   3.666   3.123
 3295WAT      O23835   1.781   5.915  11.183
 3295WAT     H123836   1.735   5.866  11.115
 3295WAT     H223837   1.850   5.962  11.137
 3296WAT      O23838   5.114   0.263  12.692
 3296WAT     H123839   5.165   0.195  12.648
 3296WAT     H223840   5.065   0.306  12.621
 3297WAT      O23841   3.009   4.093   4.235
 3297WAT     H123842   2.946   4.087   4.162
 3297WAT     H223843   3.079   4.149   4.201
 3298WAT      O23844   5.994   4.297   8.929
 3298WAT     H123845   6.037   4.378   8.956
 3298WAT     H223846   6.015   4.288   8.836
 3299WAT      O23847   0.577   1.021   9.413
 3299WAT     H123848   0.530   1.104   9.400
 3299WAT     H223849   0.629   1.011   9.333
 3300WAT      O23850   1.004   2.220   0.149
 3300WAT     H123851   0.911   2.195   0.146
 3300WAT     H223852   1.049   2.140   0.176
 3301WAT      O23853   1.868   0.537  11.824
 3301WAT     H123854   1.798   0.471  11.819
 3301WAT     H223855   1.860   0.572  11.913
 3302WAT      O23856   1.469   2.631   4.409
 3302WAT     H123857   1.551   2.608   4.452
 3302WAT     H223858   1.413   2.663   4.479
 3303WAT      O23859   0.031  -0.005   2.983
 3303WAT     H123860   0.084   0.067   3.018
 3303WAT     H223861  -0.011  -0.043   3.060
 3304WAT      O23862   3.074   2.587   0.723
 3304WAT     H123863   3.019   2.542   0.659
 3304WAT     H223864   3.142   2.630   0.671
 3305WAT      O23865   3.859   4.566   1.178
 3305WAT     H123866   3.767   4.559   1.203
 3305WAT     H223867   3.857   4.582   1.084
 3306WAT      O23868   4.389   0.456  11.504
 3306WAT     H123869   4.442   0.411  11.570
 3306WAT     H223870   4.300   0.423  11.519
 3307WAT      O23871   1.391   0.721   8.583
 3307WAT     H123872   1.450   0.796   8.581
 3307WAT     H223873   1.438   0.655   8.634
 3308WAT      O23874   2.485   4.387   8.472
 3308WAT     H123875   2.464   4.384   8.379
 3308WAT     H223876   2.445   4.468   8.504
 3309WAT      O23877   0.797   0.001  12.531
 3309WAT     H123878   0.869  -0.003  12.594
 3309WAT     H223879   0.815   0.080  12.479
 3310WAT      O23880   1.693   0.298   9.741
 3310WAT     H123881   1.747   0.229   9.778
 3310WAT     H223882   1.650   0.339   9.816
 3311WAT      O23883   4.335   2.407   4.490
 3311WAT     H123884   4.279   2.338   4.456
 3311WAT     H223885   4.297   2.430   4.575
 3312WAT      O23886   3.476   0.281   0.854
 3312WAT     H123887   3.549   0.320   0.903
 3312WAT     H223888   3.507   0.194   0.829
 3313WAT      O23889   0.663   3.358   8.418
 3313WAT     H123890   0.615   3.386   8.340
 3313WAT     H223891   0.731   3.299   8.384
 3314WAT      O23892   0.576   1.420   1.709
 3314WAT     H123893   0.599   1.482   1.639
 3314WAT     H223894   0.532   1.348   1.663
 3315WAT      O23895   4.380   0.560  10.108
 3315WAT     H123896   4.438   0.635  10.094
 3315WAT     H223897   4.423   0.487  10.063
 3316WAT      O23898   3.531   4.502   1.685
 3316WAT     H123899   3.597   4.531   1.748
 3316WAT     H223900   3.497   4.584   1.647
 3317WAT      O23901   2.302   1.539   9.401
 3317WAT     H123902   2.350   1.616   9.433
 3317WAT     H223903   2.316   1.472   9.469
 3318WAT      O23904   0.145   3.584   4.622
 3318WAT     H123905   0.145   3.680   4.621
 3318WAT     H223906   0.071   3.560   4.679
 3319WAT      O23907   2.575   0.177   3.428
 3319WAT     H123908   2.518   0.123   3.483
 3319WAT     H223909   2.651   0.121   3.411
 3320WAT      O23910   3.676   5.592   3.645
 3320WAT     H123911   3.603   5.653   3.644
 3320WAT     H223912   3.677   5.554   3.557
 3321WAT      O23913   1.691   4.191   2.756
 3321WAT     H123914   1.625   4.123   2.769
 3321WAT     H223915   1.686   4.210   2.662
 3322WAT      O23916   0.189   0.296   1.164
 3322WAT     H123917   0.143   0.295   1.248
 3322WAT     H223918   0.281   0.308   1.187
 3323WAT      O23919   5.279   5.580   9.023
 3323WAT     H123920   5.315   5.500   8.984
 3323WAT     H223921   5.187   5.560   9.037
 3324WAT      O23922   2.833   2.698   0.456
 3324WAT     H123923   2.859   2.617   0.499
 3324WAT     H223924   2.775   2.670   0.385
 3325WAT      O23925   1.458   0.624   2.488
 3325WAT     H123926   1.412   0.683   2.429
 3325WAT     H223927   1.405   0.623   2.567
 3326WAT      O23928   0.331   3.617   1.814
 3326WAT     H123929   0.414   3.637   1.771
 3326WAT     H223930   0.308   3.530   1.783
 3327WAT      O23931   1.970   4.663   1.785
 3327WAT     H123932   1.959   4.611   1.864
 3327WAT     H223933   1.991   4.751   1.816
 3328WAT      O23934   0.967   0.353  10.345
 3328WAT     H123935   1.043   0.302  10.373
 3328WAT     H223936   0.892   0.296  10.362
 3329WAT      O23937   4.863   0.594  10.713
 3329WAT     H123938   4.847   0.559  10.800
 3329WAT     H223939   4.958   0.603  10.707
 3330WAT      O23940   5.390   3.839   9.778
 3330WAT     H123941   5.424   3.798   9.699
 3330WAT     H223942   5.401   3.933   9.764
 3331WAT      O23943   5.554   3.294   3.355
 3331WAT     H123944   5.527   3.280   3.445
 3331WAT     H223945   5.643   3.259   3.351
 3332WAT      O23946   1.739   4.085   4.339
 3332WAT     H123947   1.677   4.033   4.289
 3332WAT     H223948   1.701   4.173   4.342
 3333WAT      O23949   4.671   4.265   0.904
 3333WAT     H123950   4.576   4.276   0.905
 3333WAT     H223951   4.696   4.280   0.813
 3334WAT      O23952   5.717   1.289  12.094
 3334WAT     H123953   5.767   1.213  12.125
 3334WAT     H223954   5.640   1.292  12.151
 3335WAT      O23955   0.832   0.677  11.532
 3335WAT     H123956   0.919   0.648  11.505
 3335WAT     H223957   0.829   0.663  11.626
 3336WAT      O23958   0.212   2.022  11.294
 3336WAT     H123959   0.254   1.940  11.269
 3336WAT     H223960   0.120   2.000  11.306
 3337WAT      O23961   1.242   4.285  10.061
 3337WAT     H123962   1.239   4.380  10.073
 3337WAT     H223963   1.187   4.269   9.985
 3338WAT      O23964   1.190   4.778  11.741
 3338WAT     H123965   1.226   4.771  11.830
 3338WAT     H223966   1.241   4.848  11.700
 3339WAT      O23967   4.727   5.174  11.722
 3339WAT     H123968   4.682   5.211  11.798
 3339WAT     H223969   4.745   5.249  11.665
 3340WAT      O23970   0.557   4.517   3.836
 3340WAT     H123971   0.593   4.531   3.749
 3340WAT     H223972   0.497   4.590   3.851
 3341WAT      O23973   1.721   3.510  10.152
 3341WAT     H123974   1.755   3.559  10.227
 3341WAT     H223975   1.722   3.574  10.080
 3342WAT      O23976   0.450   4.871   0.212
 3342WAT     H123977   0.536   4.913   0.217
 3342WAT     H223978   0.451   4.824   0.129
 3343WAT      O23979   4.829   2.958   1.947
 3343WAT     H123980   4.920   2.956   1.915
 3343WAT     H223981   4.809   2.868   1.970
 3344WAT      O23982   2.401   0.639   3.679
 3344WAT     H123983   2.422   0.560   3.629
 3344WAT     H223984   2.389   0.609   3.769
 3345WAT      O23985   4.913   5.883  10.453
 3345WAT     H123986   4.929   5.875  10.359
 3345WAT     H223987   4.849   5.815  10.472
 3346WAT      O23988   5.715   5.956   3.049
 3346WAT     H123989   5.648   6.023   3.056
 3346WAT     H223990   5.795   6.004   3.025
 3347WAT      O23991   1.499   1.521   9.036
 3347WAT     H123992   1.495   1.604   9.083
 3347WAT     H223993   1.413   1.512   8.995
 3348WAT      O23994   4.615   2.574  11.197
 3348WAT     H123995   4.693   2.624  11.173
 3348WAT     H223996   4.558   2.581  11.121
 3349WAT      O23997   6.106   3.209   8.661
 3349WAT     H123998   6.196   3.237   8.676
 3349WAT     H223999   6.073   3.269   8.595
 3350WAT      O24000   0.303   4.003  11.428
 3350WAT     H124001   0.376   4.058  11.457
 3350WAT     H224002   0.338   3.914  11.432
 3351WAT      O24003   4.011   6.168  12.401
 3351WAT     H124004   4.063   6.111  12.458
 3351WAT     H224005   4.014   6.254  12.443
 3352WAT      O24006   4.418   2.331   0.084
 3352WAT     H124007   4.374   2.278   0.018
 3352WAT     H224008   4.433   2.415   0.042
 3353WAT      O24009   3.241   3.525  10.187
 3353WAT     H124010   3.147   3.515  10.203
 3353WAT     H224011   3.265   3.447  10.138
 3354WAT      O24012   5.619   2.322  10.974
 3354WAT     H124013   5.672   2.261  11.025
 3354WAT     H224014   5.580   2.268  10.905
 3355WAT      O24015   1.724   2.341  11.048
 3355WAT     H124016   1.757   2.387  11.125
 3355WAT     H224017   1.655   2.397  11.013
 3356WAT      O24018   0.589   6.025   1.195
 3356WAT     H124019   0.669   5.972   1.193
 3356WAT     H224020   0.519   5.963   1.214
 3357WAT      O24021   2.173   2.251   2.938
 3357WAT     H124022   2.116   2.222   3.009
 3357WAT     H224023   2.112   2.284   2.871
 3358WAT      O24024   5.613   5.454   0.420
 3358WAT     H124025   5.678   5.523   0.434
 3358WAT     H224026   5.662   5.384   0.375
 3359WAT      O24027   1.554   1.870   4.079
 3359WAT     H124028   1.638   1.913   4.061
 3359WAT     H224029   1.488   1.933   4.052
 3360WAT      O24030   4.128  -0.010  11.823
 3360WAT     H124031   4.113   0.081  11.847
 3360WAT     H224032   4.107  -0.059  11.902
 3361WAT      O24033   1.567   6.028   5.122
 3361WAT     H124034   1.633   6.021   5.192
 3361WAT     H224035   1.599   6.099   5.066
 3362WAT      O24036   0.049   2.913   9.257
 3362WAT     H124037  -0.018   2.954   9.312
 3362WAT     H224038   0.044   2.960   9.174
 3363WAT      O24039   2.408   4.129   8.571
 3363WAT     H124040   2.435   4.221   8.566
 3363WAT     H224041   2.313   4.131   8.567
 3364WAT      O24042   4.301   1.942   2.270
 3364WAT     H124043   4.349   1.859   2.280
 3364WAT     H224044   4.357   1.995   2.214
 3365WAT      O24045   5.860   1.410   0.316
 3365WAT     H124046   5.801   1.348   0.358
 3365WAT     H224047   5.946   1.389   0.352
 3366WAT      O24048   4.984   0.707   0.532
 3366WAT     H124049   4.992   0.765   0.608
 3366WAT     H224050   4.904   0.735   0.489
 3367WAT      O24051   0.458   2.259   3.469
 3367WAT     H124052   0.462   2.240   3.376
 3367WAT     H224053   0.377   2.309   3.480
 3368WAT      O24054   0.609   4.075   8.702
 3368WAT     H124055   0.671   4.005   8.726
 3368WAT     H224056   0.661   4.138   8.653
 3369WAT      O24057   5.237   1.767  10.298
 3369WAT     H124058   5.272   1.734  10.381
 3369WAT     H224059   5.222   1.860  10.313
 3370WAT      O24060   3.682   1.174   0.537
 3370WAT     H124061   3.621   1.106   0.511
 3370WAT     H224062   3.731   1.135   0.610
 3371WAT      O24063   2.723   2.169   2.492
 3371WAT     H124064   2.634   2.188   2.464
 3371WAT     H224065   2.773   2.246   2.466
 3372WAT      O24066   1.698   5.567  12.559
 3372WAT     H124067   1.718   5.658  12.535
 3372WAT     H224068   1.777   5.518  12.534
 3373WAT      O24069   1.155   0.961   2.977
 3373WAT     H124070   1.062   0.982   2.970
 3373WAT     H224071   1.194   1.036   3.021
 3374WAT      O24072   1.547   5.125   4.862
 3374WAT     H124073   1.470   5.074   4.887
 3374WAT     H224074   1.518   5.181   4.791
 3375WAT      O24075   4.096   4.539   4.052
 3375WAT     H124076   4.159   4.477   4.089
 3375WAT     H224077   4.143   4.622   4.047
 3376WAT      O24078   5.669   1.715  12.609
 3376WAT     H124079   5.597   1.776  12.621
 3376WAT     H224080   5.670   1.662  12.689
 3377WAT      O24081   3.886   3.295  12.301
 3377WAT     H124082   3.966   3.337  12.332
 3377WAT     H224083   3.916   3.239  12.228
 3378WAT      O24084   4.745   0.055   2.807
 3378WAT     H124085   4.767  -0.025   2.854
 3378WAT     H224086   4.651   0.065   2.820
 3379WAT      O24087   3.342   1.729   3.451
 3379WAT     H124088   3.364   1.644   3.489
 3379WAT     H224089   3.377   1.793   3.513
 3380WAT      O24090   3.078   1.200   8.741
 3380WAT     H124091   2.983   1.196   8.747
 3380WAT     H224092   3.104   1.259   8.812
 3381WAT      O24093   2.301   1.212  12.409
 3381WAT     H124094   2.372   1.148  12.410
 3381WAT     H224095   2.234   1.174  12.467
 3382WAT      O24096   2.495   1.801   2.145
 3382WAT     H124097   2.472   1.809   2.238
 3382WAT     H224098   2.498   1.706   2.130
 3383WAT      O24099   4.049   0.641   8.421
 3383WAT     H124100   3.999   0.714   8.382
 3383WAT     H224101   4.122   0.683   8.466
 3384WAT      O24102   2.563   2.838  11.580
 3384WAT     H124103   2.520   2.906  11.631
 3384WAT     H224104   2.594   2.775  11.644
 3385WAT      O24105   0.485   2.776   1.620
 3385WAT     H124106   0.421   2.809   1.557
 3385WAT     H224107   0.550   2.731   1.566
 3386WAT      O24108   0.510   4.319  12.221
 3386WAT     H124109   0.582   4.378  12.199
 3386WAT     H224110   0.479   4.350  12.306
 3387WAT      O24111   0.175   1.216  11.170
 3387WAT     H124112   0.085   1.240  11.144
 3387WAT     H224113   0.182   1.123  11.146
 3388WAT      O24114   4.993   1.508  10.003
 3388WAT     H124115   5.011   1.514  10.097
 3388WAT     H224116   4.967   1.417   9.989
 3389WAT      O24117   1.147   0.992   2.586
 3389WAT     H124118   1.128   1.019   2.676
 3389WAT     H224119   1.232   0.949   2.591
 3390WAT      O24120   4.598   0.965   7.924
 3390WAT     H124121   4.529   1.023   7.957
 3390WAT     H224122   4.625   1.005   7.841
 3391WAT      O24123   5.777   6.088   0.754
 3391WAT     H124124   5.711   6.020   0.738
 3391WAT     H224125   5.730   6.170   0.738
 3392WAT      O24126   4.298   4.653  10.866
 3392WAT     H124127   4.276   4.593  10.937
 3392WAT     H224128   4.330   4.732  10.910
 3393WAT      O24129   0.595   4.856   8.145
 3393WAT     H124130   0.640   4.938   8.121
 3393WAT     H224131   0.608   4.848   8.239
 3394WAT      O24132   1.762   3.479   2.357
 3394WAT     H124133   1.835   3.461   2.417
 3394WAT     H224134   1.692   3.511   2.414
 3395WAT      O24135   5.883   3.648   0.523
 3395WAT     H124136   5.819   3.579   0.539
 3395WAT     H224137   5.849   3.695   0.447
 3396WAT      O24138   4.217   3.431   1.530
 3396WAT     H124139   4.254   3.490   1.596
 3396WAT     H224140   4.163   3.370   1.581
 3397WAT      O24141   2.335   2.136   9.905
 3397WAT     H124142   2.338   2.205   9.972
 3397WAT     H224143   2.294   2.177   9.829
 3398WAT      O24144   3.511   4.302   9.407
 3398WAT     H124145   3.497   4.252   9.327
 3398WAT     H224146   3.425   4.306   9.448
 3399WAT      O24147   1.365   4.920   8.858
 3399WAT     H124148   1.395   4.899   8.946
 3399WAT     H224149   1.428   4.985   8.826
 3400WAT      O24150   0.842   1.077   3.219
 3400WAT     H124151   0.825   1.169   3.239
 3400WAT     H224152   0.854   1.074   3.124
 3401WAT      O24153   5.604   2.511   2.861
 3401WAT     H124154   5.623   2.434   2.913
 3401WAT     H224155   5.548   2.479   2.790
 3402WAT      O24156   0.583   4.449   0.513
 3402WAT     H124157   0.512   4.385   0.513
 3402WAT     H224158   0.548   4.524   0.466
 3403WAT      O24159   4.723   5.399   4.291
 3403WAT     H124160   4.737   5.493   4.296
 3403WAT     H224161   4.806   5.361   4.321
 3404WAT      O24162   3.140   5.439  11.684
 3404WAT     H124163   3.121   5.349  11.657
 3404WAT     H224164   3.075   5.458  11.752
 3405WAT      O24165   3.262   4.105  10.944
 3405WAT     H124166   3.337   4.151  10.983
 3405WAT     H224167   3.190   4.121  11.006
 3406WAT      O24168   3.445   1.337   4.358
 3406WAT     H124169   3.365   1.390   4.355
 3406WAT     H224170   3.447   1.293   4.273
 3407WAT      O24171   5.553   5.468   1.706
 3407WAT     H124172   5.463   5.491   1.682
 3407WAT     H224173   5.607   5.535   1.663
 3408WAT      O24174   1.161   0.068   0.425
 3408WAT     H124175   1.234   0.051   0.484
 3408WAT     H224176   1.087   0.084   0.484
 3409WAT      O24177   5.938   2.607  10.037
 3409WAT     H124178   5.935   2.700  10.014
 3409WAT     H224179   5.957   2.607  10.131
 3410WAT      O24180   2.463   3.559   3.804
 3410WAT     H124181   2.532   3.510   3.849
 3410WAT     H224182   2.440   3.629   3.865
 3411WAT      O24183   4.053   5.538   1.429
 3411WAT     H124184   4.092   5.541   1.516
 3411WAT     H224185   4.059   5.628   1.397
 3412WAT      O24186   2.506   2.666  12.461
 3412WAT     H124187   2.592   2.654  12.503
 3412WAT     H224188   2.449   2.604  12.507
 3413WAT      O24189   2.860   5.573   9.709
 3413WAT     H124190   2.772   5.610   9.699
 3413WAT     H224191   2.850   5.508   9.778
 3414WAT      O24192   0.910   3.723   5.345
 3414WAT     H124193   0.858   3.681   5.276
 3414WAT     H224194   0.912   3.815   5.320
 3415WAT      O24195   6.005   2.340  11.747
 3415WAT     H124196   6.021   2.419  11.798
 3415WAT     H224197   6.078   2.336  11.685
 3416WAT      O24198   6.167   0.797  12.304
 3416WAT     H124199   6.175   0.855  12.380
 3416WAT     H224200   6.088   0.745  12.322
 3417WAT      O24201   5.266   2.277   2.701
 3417WAT     H124202   5.199   2.238   2.645
 3417WAT     H224203   5.295   2.205   2.757
 3418WAT      O24204   1.498   4.503   3.654
 3418WAT     H124205   1.522   4.420   3.695
 3418WAT     H224206   1.578   4.532   3.610
 3419WAT      O24207   1.791   1.035   0.454
 3419WAT     H124208   1.886   1.037   0.454
 3419WAT     H224209   1.768   0.971   0.386
 3420WAT      O24210   1.060   4.007   3.510
 3420WAT     H124211   1.101   3.944   3.569
 3420WAT     H224212   1.105   4.089   3.528
 3421WAT      O24213   1.209   3.675  10.678
 3421WAT     H124214   1.199   3.739  10.748
 3421WAT     H224215   1.208   3.728  10.598
 3422WAT      O24216   3.935   1.132  11.925
 3422WAT     H124217   4.018   1.092  11.897
 3422WAT     H224218   3.962   1.211  11.974
 3423WAT      O24219   4.439   0.003   2.275
 3423WAT     H124220   4.464   0.051   2.353
 3423WAT     H224221   4.509   0.021   2.212
 3424WAT      O24222   4.828   1.917  11.235
 3424WAT     H124223   4.911   1.962  11.253
 3424WAT     H224224   4.808   1.871  11.316
 3425WAT      O24225   0.896   5.579  11.007
 3425WAT     H124226   0.889   5.553  11.099
 3425WAT     H224227   0.985   5.554  10.982
 3426WAT      O24228   4.050   1.341  12.319
 3426WAT     H124229   3.984   1.273  12.334
 3426WAT     H224230   4.133   1.298  12.338
 3427WAT      O24231   4.205   2.455   0.838
 3427WAT     H124232   4.177   2.385   0.896
 3427WAT     H224233   4.201   2.534   0.892
 3428WAT      O24234   0.072   1.505   8.242
 3428WAT     H124235   0.124   1.552   8.308
 3428WAT     H224236   0.113   1.528   8.159
 3429WAT      O24237   0.327   2.539  10.922
 3429WAT     H124238   0.333   2.617  10.977
 3429WAT     H224239   0.406   2.540  10.868
 3430WAT      O24240   0.054   3.691  10.611
 3430WAT     H124241   0.073   3.764  10.670
 3430WAT     H224242   0.032   3.732  10.527
 3431WAT      O24243   5.742   1.814   4.544
 3431WAT     H124244   5.667   1.871   4.561
 3431WAT     H224245   5.729   1.740   4.603
 3432WAT      O24246   5.859   1.298   7.950
 3432WAT     H124247   5.932   1.269   8.005
 3432WAT     H224248   5.896   1.304   7.862
 3433WAT      O24249   3.806   1.419   1.306
 3433WAT     H124250   3.759   1.387   1.383
 3433WAT     H224251   3.741   1.417   1.235
 3434WAT      O24252   5.536   0.155   9.926
 3434WAT     H124253   5.495   0.222   9.980
 3434WAT     H224254   5.610   0.123   9.978
 3435WAT      O24255   0.384   5.104   4.097
 3435WAT     H124256   0.307   5.119   4.152
 3435WAT     H224257   0.442   5.178   4.117
 3436WAT      O24258   3.062   4.650  11.872
 3436WAT     H124259   2.987   4.612  11.825
 3436WAT     H224260   3.024   4.723  11.921
 3437WAT      O24261   3.402   2.131   2.174
 3437WAT     H124262   3.492   2.129   2.142
 3437WAT     H224263   3.401   2.200   2.240
 3438WAT      O24264   2.815   1.817   1.893
 3438WAT     H124265   2.795   1.724   1.898
 3438WAT     H224266   2.844   1.831   1.803
 3439WAT      O24267   1.781   3.085  12.513
 3439WAT     H124268   1.787   3.000  12.469
 3439WAT     H224269   1.867   3.126  12.498
 3440WAT      O24270   3.460   5.332   9.874
 3440WAT     H124271   3.368   5.325   9.846
 3440WAT     H224272   3.467   5.271   9.947
 3441WAT      O24273   0.706   3.702   8.860
 3441WAT     H124274   0.739   3.614   8.876
 3441WAT     H224275   0.664   3.698   8.774
 3442WAT      O24276   0.617   3.537   2.873
 3442WAT     H124277   0.708   3.538   2.903
 3442WAT     H224278   0.591   3.629   2.872
 3443WAT      O24279   0.990   0.582   2.451
 3443WAT     H124280   1.006   0.540   2.535
 3443WAT     H224281   0.961   0.671   2.474
 3444WAT      O24282   2.072   0.146  11.432
 3444WAT     H124283   2.098   0.056  11.453
 3444WAT     H224284   2.020   0.174  11.508
 3445WAT      O24285   5.438   4.786   0.194
 3445WAT     H124286   5.422   4.695   0.219
 3445WAT     H224287   5.433   4.787   0.099
 3446WAT      O24288   4.114   4.912  10.124
 3446WAT     H124289   4.193   4.950  10.162
 3446WAT     H224290   4.069   4.986  10.084
 3447WAT      O24291   2.899   2.388   4.165
 3447WAT     H124292   2.961   2.382   4.238
 3447WAT     H224293   2.916   2.310   4.112
 3448WAT      O24294   3.346   3.866   4.049
 3448WAT     H124295   3.437   3.841   4.029
 3448WAT     H224296   3.341   3.861   4.144
 3449WAT      O24297   1.391   4.572   4.225
 3449WAT     H124298   1.299   4.595   4.227
 3449WAT     H224299   1.406   4.527   4.308
 3450WAT      O24300   5.203   1.533   0.477
 3450WAT     H124301   5.221   1.543   0.384
 3450WAT     H224302   5.157   1.613   0.502
 3451WAT      O24303   1.389   1.432   0.871
 3451WAT     H124304   1.429   1.504   0.822
 3451WAT     H224305   1.456   1.364   0.874
 3452WAT      O24306   0.352   2.459  11.465
 3452WAT     H124307   0.281   2.395  11.460
 3452WAT     H224308   0.354   2.486  11.557
 3453WAT      O24309   3.134   4.392  12.638
 3453WAT     H124310   3.164   4.335  12.709
 3453WAT     H224311   3.065   4.445  12.677
 3454WAT      O24312   4.185   5.276   9.440
 3454WAT     H124313   4.221   5.192   9.411
 3454WAT     H224314   4.259   5.337   9.433
 3455WAT      O24315   3.377   5.727   0.066
 3455WAT     H124316   3.418   5.760  -0.013
 3455WAT     H224317   3.376   5.802   0.126
 3456WAT      O24318   0.214   4.586   0.828
 3456WAT     H124319   0.134   4.534   0.820
 3456WAT     H224320   0.278   4.539   0.773
 3457WAT      O24321   6.131   0.449  10.943
 3457WAT     H124322   6.036   0.443  10.929
 3457WAT     H224323   6.140   0.457  11.038
 3458WAT      O24324   2.627   5.249   2.034
 3458WAT     H124325   2.614   5.341   2.056
 3458WAT     H224326   2.544   5.222   1.995
 3459WAT      O24327   4.741   4.045   0.091
 3459WAT     H124328   4.699   4.033   0.006
 3459WAT     H224329   4.687   3.995   0.152
 3460WAT      O24330   1.448   6.193  10.233
 3460WAT     H124331   1.498   6.245  10.169
 3460WAT     H224332   1.510   6.125  10.260
 3461WAT      O24333   6.123   3.992  10.464
 3461WAT     H124334   6.075   3.984  10.546
 3461WAT     H224335   6.064   4.042  10.407
 3462WAT      O24336   4.957   0.893   2.714
 3462WAT     H124337   4.971   0.858   2.802
 3462WAT     H224338   4.864   0.911   2.710
 3463WAT      O24339   2.202   4.086  12.282
 3463WAT     H124340   2.203   4.171  12.238
 3463WAT     H224341   2.250   4.101  12.364
 3464WAT      O24342   5.499   4.853  10.760
 3464WAT     H124343   5.566   4.868  10.827
 3464WAT     H224344   5.496   4.757  10.750
 3465WAT      O24345   3.498   3.177   4.173
 3465WAT     H124346   3.486   3.204   4.264
 3465WAT     H224347   3.527   3.086   4.178
 3466WAT      O24348   3.219   2.343  11.025
 3466WAT     H124349   3.183   2.364  10.939
 3466WAT     H224350   3.216   2.247  11.028
 3467WAT      O24351   0.116   5.369   1.361
 3467WAT     H124352   0.070   5.357   1.277
 3467WAT     H224353   0.208   5.377   1.336
 3468WAT      O24354   5.419   2.264   8.687
 3468WAT     H124355   5.509   2.295   8.684
 3468WAT     H224356   5.421   2.190   8.748
 3469WAT      O24357   5.685   5.789  10.212
 3469WAT     H124358   5.778   5.795  10.188
 3469WAT     H224359   5.680   5.713  10.270
 3470WAT      O24360   3.252   3.426   2.695
 3470WAT     H124361   3.347   3.437   2.685
 3470WAT     H224362   3.220   3.407   2.607
 3471WAT      O24363   0.304   5.850  11.648
 3471WAT     H124364   0.349   5.766  11.656
 3471WAT     H224365   0.257   5.860  11.731
 3472WAT      O24366   3.120   5.923  11.555
 3472WAT     H124367   3.189   5.987  11.570
 3472WAT     H224368   3.151   5.844  11.600
 3473WAT      O24369   2.325   0.739   7.720
 3473WAT     H124370   2.287   0.698   7.642
 3473WAT     H224371   2.305   0.832   7.711
 3474WAT      O24372   0.188   4.055  11.164
 3474WAT     H124373   0.118   4.115  11.185
 3474WAT     H224374   0.235   4.043  11.247
 3475WAT      O24375   1.521   4.599   1.074
 3475WAT     H124376   1.601   4.631   1.030
 3475WAT     H224377   1.451   4.652   1.037
 3476WAT      O24378   4.336   5.576   9.695
 3476WAT     H124379   4.260   5.567   9.754
 3476WAT     H224380   4.304   5.543   9.611
 3477WAT      O24381   2.758   5.328  12.584
 3477WAT     H124382   2.813   5.340  12.661
 3477WAT     H224383   2.672   5.362  12.610
 3478WAT      O24384   1.161   5.133   0.045
 3478WAT     H124385   1.196   5.217   0.015
 3478WAT     H224386   1.074   5.128   0.007
 3479WAT      O24387   3.842   5.137  11.576
 3479WAT     H124388   3.763   5.087  11.555
 3479WAT     H224389   3.818   5.228  11.558
 3480WAT      O24390   5.027   4.956   2.457
 3480WAT     H124391   5.015   4.934   2.365
 3480WAT     H224392   4.941   4.987   2.486
 3481WAT      O24393   1.157   1.986   8.821
 3481WAT     H124394   1.248   1.972   8.794
 3481WAT     H224395   1.124   1.898   8.838
 3482WAT      O24396   3.855   4.160  10.062
 3482WAT     H124397   3.783   4.123  10.011
 3482WAT     H224398   3.818   4.240  10.100
 3483WAT      O24399   0.399   2.242   0.452
 3483WAT     H124400   0.307   2.266   0.442
 3483WAT     H224401   0.408   2.161   0.401
 3484WAT      O24402   2.443   3.714   4.023
 3484WAT     H124403   2.399   3.798   4.043
 3484WAT     H224404   2.416   3.656   4.095
 3485WAT      O24405   1.613   0.230   3.700
 3485WAT     H124406   1.561   0.249   3.778
 3485WAT     H224407   1.564   0.163   3.654
 3486WAT      O24408   2.807   3.791   2.221
 3486WAT     H124409   2.747   3.829   2.157
 3486WAT     H224410   2.840   3.712   2.177
 3487WAT      O24411   5.022   1.256   2.011
 3487WAT     H124412   5.036   1.255   2.106
 3487WAT     H224413   5.095   1.205   1.976
 3488WAT      O24414   5.946   0.005   1.592
 3488WAT     H124415   5.928   0.096   1.566
 3488WAT     H224416   5.991  -0.033   1.517
 3489WAT      O24417   3.987   0.945   0.307
 3489WAT     H124418   4.052   0.894   0.355
 3489WAT     H224419   4.015   1.036   0.319
 3490WAT      O24420   0.823   3.520   0.439
 3490WAT     H124421   0.874   3.591   0.400
 3490WAT     H224422   0.884   3.475   0.497
 3491WAT      O24423   2.349   5.471  12.328
 3491WAT     H124424   2.440   5.474  12.356
 3491WAT     H224425   2.334   5.379  12.306
 3492WAT      O24426   4.381   4.228   0.874
 3492WAT     H124427   4.346   4.293   0.813
 3492WAT     H224428   4.306   4.173   0.896
 3493WAT      O24429   2.158   4.370  10.015
 3493WAT     H124430   2.077   4.326  10.041
 3493WAT     H224431   2.130   4.440   9.956
 3494WAT      O24432   5.991   0.853   2.950
 3494WAT     H124433   6.009   0.836   3.043
 3494WAT     H224434   6.029   0.778   2.904
 3495WAT      O24435   2.314   1.702   9.679
 3495WAT     H124436   2.233   1.655   9.695
 3495WAT     H224437   2.348   1.722   9.766
 3496WAT      O24438   5.719   3.975   9.906
 3496WAT     H124439   5.755   4.057   9.873
 3496WAT     H224440   5.646   3.955   9.847
 3497WAT      O24441   4.142   2.059  11.784
 3497WAT     H124442   4.052   2.089  11.774
 3497WAT     H224443   4.192   2.112  11.722
 3498WAT      O24444   3.353   1.653   1.693
 3498WAT     H124445   3.432   1.692   1.654
 3498WAT     H224446   3.296   1.728   1.711
 3499WAT      O24447   2.174   4.578   2.430
 3499WAT     H124448   2.259   4.606   2.465
 3499WAT     H224449   2.179   4.597   2.336
 3500WAT      O24450   2.140   0.112   2.577
 3500WAT     H124451   2.063   0.130   2.632
 3500WAT     H224452   2.187   0.196   2.574
 3501WAT      O24453   4.395   5.789   1.147
 3501WAT     H124454   4.370   5.866   1.095
 3501WAT     H224455   4.400   5.821   1.237
 3502WAT      O24456   1.424   5.221  11.268
 3502WAT     H124457   1.467   5.297  11.228
 3502WAT     H224458   1.339   5.255  11.296
 3503WAT      O24459   4.265   1.563   1.304
 3503WAT     H124460   4.267   1.494   1.237
 3503WAT     H224461   4.176   1.562   1.337
 3504WAT      O24462   0.124   5.978   0.060
 3504WAT     H124463   0.128   6.056   0.114
 3504WAT     H224464   0.208   5.975   0.015
 3505WAT      O24465   4.750   3.725   4.307
 3505WAT     H124466   4.825   3.782   4.328
 3505WAT     H224467   4.788   3.638   4.299
 3506WAT      O24468   4.371   2.476   3.294
 3506WAT     H124469   4.326   2.539   3.350
 3506WAT     H224470   4.325   2.482   3.210
 3507WAT      O24471   1.918   1.169  10.217
 3507WAT     H124472   1.878   1.153  10.303
 3507WAT     H224473   1.845   1.198  10.162
 3508WAT      O24474   5.376   5.429   2.461
 3508WAT     H124475   5.452   5.487   2.462
 3508WAT     H224476   5.409   5.346   2.496
 3509WAT      O24477   0.779   2.756  11.807
 3509WAT     H124478   0.696   2.710  11.818
 3509WAT     H224479   0.843   2.701  11.852
 3510WAT      O24480   1.355   5.905  11.807
 3510WAT     H124481   1.350   5.843  11.880
 3510WAT     H224482   1.446   5.899  11.777
 3511WAT      O24483   4.151   1.003   9.238
 3511WAT     H124484   4.139   0.942   9.311
 3511WAT     H224485   4.172   1.086   9.279
 3512WAT      O24486   0.351   3.320   8.916
 3512WAT     H124487   0.422   3.331   8.979
 3512WAT     H224488   0.295   3.397   8.930
 3513WAT      O24489   2.900   0.824   2.961
 3513WAT     H124490   2.862   0.849   2.877
 3513WAT     H224491   2.941   0.905   2.994
 3514WAT      O24492   0.875   2.529   2.600
 3514WAT     H124493   0.796   2.566   2.560
 3514WAT     H224494   0.936   2.603   2.604
 3515WAT      O24495   2.685   2.558  12.636
 3515WAT     H124496   2.769   2.526  12.602
 3515WAT     H224497   2.662   2.496  12.705
 3516WAT      O24498   1.300   3.433   1.060
 3516WAT     H124499   1.387   3.391   1.062
 3516WAT     H224500   1.317   3.523   1.087
 3517WAT      O24501   1.290   1.753  11.574
 3517WAT     H124502   1.347   1.793  11.639
 3517WAT     H224503   1.204   1.793  11.590
 3518WAT      O24504   1.556   5.659   3.247
 3518WAT     H124505   1.577   5.743   3.205
 3518WAT     H224506   1.586   5.670   3.337
 3519WAT      O24507   5.002   3.574   9.582
 3519WAT     H124508   5.024   3.535   9.666
 3519WAT     H224509   5.046   3.660   9.584
 3520WAT      O24510   1.928   1.843   8.780
 3520WAT     H124511   1.996   1.888   8.730
 3520WAT     H224512   1.877   1.914   8.819
 3521WAT      O24513   2.673   5.833   2.480
 3521WAT     H124514   2.748   5.858   2.426
 3521WAT     H224515   2.660   5.907   2.539
 3522WAT      O24516   0.550   2.593  12.643
 3522WAT     H124517   0.564   2.685  12.620
 3522WAT     H224518   0.611   2.545  12.587
 3523WAT      O24519   3.611   0.567   2.843
 3523WAT     H124520   3.683   0.510   2.815
 3523WAT     H224521   3.653   0.630   2.903
 3524WAT      O24522   4.918   3.023  11.193
 3524WAT     H124523   4.933   3.117  11.203
 3524WAT     H224524   4.826   3.011  11.216
 3525WAT      O24525   1.983   0.330   8.217
 3525WAT     H124526   2.048   0.287   8.273
 3525WAT     H224527   1.998   0.292   8.130
 3526WAT      O24528   5.549   3.076   1.494
 3526WAT     H124529   5.586   3.001   1.541
 3526WAT     H224530   5.571   3.152   1.549
 3527WAT      O24531   0.768   3.319  10.165
 3527WAT     H124532   0.847   3.358  10.128
 3527WAT     H224533   0.755   3.238  10.116
 3528WAT      O24534   5.362   2.855   3.403
 3528WAT     H124535   5.322   2.859   3.317
 3528WAT     H224536   5.455   2.868   3.387
 3529WAT      O24537   3.333   2.792  12.318
 3529WAT     H124538   3.411   2.814  12.370
 3529WAT     H224539   3.279   2.740  12.377
 3530WAT      O24540   5.620   2.943  10.530
 3530WAT     H124541   5.563   2.893  10.588
 3530WAT     H224542   5.648   3.018  10.584
 3531WAT      O24543   0.360   1.209   8.521
 3531WAT     H124544   0.266   1.223   8.528
 3531WAT     H224545   0.388   1.265   8.449
 3532WAT      O24546   5.789   2.849   1.408
 3532WAT     H124547   5.717   2.793   1.378
 3532WAT     H224548   5.863   2.824   1.353
 3533WAT      O24549   3.968   6.009   0.418
 3533WAT     H124550   4.063   6.000   0.431
 3533WAT     H224551   3.947   5.944   0.350
 3534WAT      O24552   4.614   0.769   1.079
 3534WAT     H124553   4.533   0.807   1.113
 3534WAT     H224554   4.673   0.844   1.069
 3535WAT      O24555   1.406   5.808  12.620
 3535WAT     H124556   1.487   5.844  12.585
 3535WAT     H224557   1.432   5.765  12.702
 3536WAT      O24558  -0.016   0.906   9.965
 3536WAT     H124559  -0.032   0.840   9.898
 3536WAT     H224560   0.049   0.965   9.926
 3537WAT      O24561   5.684   5.579   3.281
 3537WAT     H124562   5.622   5.616   3.219
 3537WAT     H224563   5.743   5.652   3.302
 3538WAT      O24564   3.058   2.489   1.927
 3538WAT     H124565   3.124   2.487   1.996
 3538WAT     H224566   2.988   2.543   1.963
 3539WAT      O24567   0.355   3.079   0.305
 3539WAT     H124568   0.309   3.000   0.333
 3539WAT     H224569   0.360   3.071   0.210
 3540WAT      O24570   5.485   3.258  10.194
 3540WAT     H124571   5.540   3.183  10.216
 3540WAT     H224572   5.395   3.226  10.204
 3541WAT      O24573   3.344   2.039   1.128
 3541WAT     H124574   3.342   2.021   1.222
 3541WAT     H224575   3.263   2.089   1.112
 3542WAT      O24576   2.317   0.629  11.182
 3542WAT     H124577   2.312   0.682  11.262
 3542WAT     H224578   2.251   0.668  11.124
 3543WAT      O24579   4.592   3.467  10.463
 3543WAT     H124580   4.637   3.441  10.382
 3543WAT     H224581   4.554   3.552  10.442
 3544WAT      O24582   5.835   3.591   1.994
 3544WAT     H124583   5.907   3.557   1.941
 3544WAT     H224584   5.766   3.609   1.931
 3545WAT      O24585   2.540   2.871   9.771
 3545WAT     H124586   2.460   2.835   9.809
 3545WAT     H224587   2.510   2.939   9.712
 3546WAT      O24588   4.618   1.352   9.709
 3546WAT     H124589   4.586   1.363   9.620
 3546WAT     H224590   4.711   1.375   9.704
 3547WAT      O24591   0.225   1.197  11.633
 3547WAT     H124592   0.258   1.121  11.586
 3547WAT     H224593   0.206   1.261  11.565
 3548WAT      O24594   4.747   5.454   2.423
 3548WAT     H124595   4.774   5.545   2.409
 3548WAT     H224596   4.809   5.421   2.489
 3549WAT      O24597   6.050   4.707   3.395
 3549WAT     H124598   6.119   4.672   3.339
 3549WAT     H224599   6.058   4.658   3.477
 3550WAT      O24600   2.365   5.907   3.429
 3550WAT     H124601   2.433   5.897   3.362
 3550WAT     H224602   2.381   5.835   3.490
 3551WAT      O24603   0.168   0.836  11.972
 3551WAT     H124604   0.235   0.770  11.993
 3551WAT     H224605   0.209   0.892  11.907
 3552WAT      O24606   4.817   2.727  10.019
 3552WAT     H124607   4.805   2.748  10.112
 3552WAT     H224608   4.821   2.812   9.975
 3553WAT      O24609   5.212   3.405   2.240
 3553WAT     H124610   5.184   3.331   2.294
 3553WAT     H224611   5.156   3.478   2.267
 3554WAT      O24612   1.024   3.921   5.160
 3554WAT     H124613   1.002   3.983   5.091
 3554WAT     H224614   1.094   3.867   5.123
 3555WAT      O24615   3.446   6.102   8.545
 3555WAT     H124616   3.459   6.147   8.628
 3555WAT     H224617   3.429   6.172   8.482
 3556WAT      O24618   0.851   3.001  11.221
 3556WAT     H124619   0.872   2.997  11.314
 3556WAT     H224620   0.894   3.081  11.190
 3557WAT      O24621   5.265   3.465   3.327
 3557WAT     H124622   5.177   3.490   3.297
 3557WAT     H224623   5.266   3.488   3.420
 3558WAT      O24624   0.125   4.839   1.573
 3558WAT     H124625   0.051   4.838   1.633
 3558WAT     H224626   0.197   4.878   1.624
 3559WAT      O24627   1.757   1.640   8.752
 3559WAT     H124628   1.819   1.712   8.761
 3559WAT     H224629   1.791   1.571   8.809
 3560WAT      O24630   5.737   5.719  11.041
 3560WAT     H124631   5.707   5.629  11.046
 3560WAT     H224632   5.740   5.748  11.133
 3561WAT      O24633   1.898   0.488   1.922
 3561WAT     H124634   1.951   0.568   1.921
 3561WAT     H224635   1.832   0.501   1.854
 3562WAT      O24636   5.699   0.767   2.234
 3562WAT     H124637   5.722   0.700   2.299
 3562WAT     H224638   5.696   0.849   2.284
 3563WAT      O24639   3.819   5.975  10.750
 3563WAT     H124640   3.825   6.052  10.806
 3563WAT     H224641   3.742   5.928  10.780
 3564WAT      O24642   4.050   3.197   1.635
 3564WAT     H124643   3.971   3.181   1.584
 3564WAT     H224644   4.104   3.119   1.621
 3565WAT      O24645   4.463   2.420   3.611
 3565WAT     H124646   4.390   2.468   3.650
 3565WAT     H224647   4.432   2.329   3.608
 3566WAT      O24648   2.378   5.567  10.383
 3566WAT     H124649   2.386   5.472  10.379
 3566WAT     H224650   2.404   5.590  10.472
 3567WAT      O24651   4.351   2.555   2.426
 3567WAT     H124652   4.268   2.599   2.410
 3567WAT     H224653   4.342   2.471   2.382
 3568WAT      O24654   1.384   1.526  10.243
 3568WAT     H124655   1.367   1.552  10.333
 3568WAT     H224656   1.463   1.472  10.248
 3569WAT      O24657   5.154   0.703   2.621
 3569WAT     H124658   5.188   0.699   2.531
 3569WAT     H224659   5.070   0.748   2.613
 3570WAT      O24660   3.722   0.073   7.588
 3570WAT     H124661   3.691   0.148   7.639
 3570WAT     H224662   3.658   0.004   7.606
 3571WAT      O24663   2.767   4.587  11.968
 3571WAT     H124664   2.822   4.524  12.015
 3571WAT     H224665   2.678   4.553  11.977
 3572WAT      O24666   1.726   3.046  12.120
 3572WAT     H124667   1.816   3.069  12.096
 3572WAT     H224668   1.684   3.130  12.138
 3573WAT      O24669   4.552   5.352   9.941
 3573WAT     H124670   4.636   5.306   9.933
 3573WAT     H224671   4.556   5.421   9.875
 3574WAT      O24672   5.231   1.811   3.906
 3574WAT     H124673   5.218   1.734   3.961
 3574WAT     H224674   5.244   1.883   3.967
 3575WAT      O24675   5.956   5.081  11.809
 3575WAT     H124676   5.969   4.994  11.771
 3575WAT     H224677   6.025   5.089  11.874
 3576WAT      O24678   2.846   0.086   3.341
 3576WAT     H124679   2.882   0.037   3.416
 3576WAT     H224680   2.912   0.153   3.323
 3577WAT      O24681   2.026   5.841   9.642
 3577WAT     H124682   1.954   5.899   9.666
 3577WAT     H224683   1.999   5.754   9.672
 3578WAT      O24684   4.196   3.097   8.215
 3578WAT     H124685   4.133   3.025   8.208
 3578WAT     H224686   4.225   3.111   8.125
 3579WAT      O24687   3.964   5.329  10.782
 3579WAT     H124688   3.938   5.268  10.851
 3579WAT     H224689   3.917   5.299  10.704
 3580WAT      O24690   1.510   1.550   0.624
 3580WAT     H124691   1.479   1.499   0.550
 3580WAT     H224692   1.485   1.640   0.604
 3581WAT      O24693   3.494   0.247   2.596
 3581WAT     H124694   3.444   0.234   2.516
 3581WAT     H224695   3.435   0.219   2.666
 3582WAT      O24696   0.931   1.786  10.429
 3582WAT     H124697   0.838   1.783  10.405
 3582WAT     H224698   0.977   1.771  10.346
 3583WAT      O24699   3.295   2.457   8.775
 3583WAT     H124700   3.209   2.493   8.753
 3583WAT     H224701   3.348   2.534   8.796
 3584WAT      O24702   2.468   0.052   8.512
 3584WAT     H124703   2.477   0.117   8.442
 3584WAT     H224704   2.374   0.046   8.527
 3585WAT      O24705   5.627   5.672   1.521
 3585WAT     H124706   5.655   5.757   1.553
 3585WAT     H224707   5.547   5.690   1.471
 3586WAT      O24708   5.763   0.656   9.411
 3586WAT     H124709   5.713   0.705   9.477
 3586WAT     H224710   5.824   0.720   9.375
 3587WAT      O24711   2.552   5.468   1.795
 3587WAT     H124712   2.500   5.454   1.875
 3587WAT     H224713   2.523   5.553   1.762
 3588WAT      O24714   4.654   0.581   9.856
 3588WAT     H124715   4.630   0.643   9.925
 3588WAT     H224716   4.718   0.523   9.897
 3589WAT      O24717   5.395   4.333  11.876
 3589WAT     H124718   5.489   4.348  11.873
 3589WAT     H224719   5.370   4.316  11.785
 3590WAT      O24720   3.428   1.045   0.566
 3590WAT     H124721   3.359   1.076   0.625
 3590WAT     H224722   3.406   0.954   0.549
 3591WAT      O24723   3.404   2.495  10.396
 3591WAT     H124724   3.449   2.507  10.312
 3591WAT     H224725   3.469   2.522  10.462
 3592WAT      O24726   2.822   6.156   8.683
 3592WAT     H124727   2.844   6.144   8.775
 3592WAT     H224728   2.871   6.089   8.637
 3593WAT      O24729   5.626   2.630   1.281
 3593WAT     H124730   5.671   2.549   1.258
 3593WAT     H224731   5.622   2.679   1.199
 3594WAT      O24732   2.551   0.158   0.576
 3594WAT     H124733   2.563   0.232   0.516
 3594WAT     H224734   2.468   0.178   0.621
 3595WAT      O24735   3.326   3.357  11.270
 3595WAT     H124736   3.351   3.291  11.334
 3595WAT     H224737   3.404   3.370  11.217
 3596WAT      O24738   1.884   5.837   4.497
 3596WAT     H124739   1.940   5.760   4.487
 3596WAT     H224740   1.937   5.898   4.548
 3597WAT      O24741   0.146   2.218  11.513
 3597WAT     H124742   0.153   2.161  11.436
 3597WAT     H224743   0.167   2.161  11.587
 3598WAT      O24744   3.859   2.273   1.189
 3598WAT     H124745   3.769   2.287   1.162
 3598WAT     H224746   3.911   2.292   1.110
 3599WAT      O24747   4.766   1.054  12.589
 3599WAT     H124748   4.742   0.993  12.519
 3599WAT     H224749   4.860   1.043  12.598
 3600WAT      O24750   1.391   4.414   9.713
 3600WAT     H124751   1.374   4.324   9.687
 3600WAT     H224752   1.438   4.407   9.796
 3601WAT      O24753   0.407   3.207   1.605
 3601WAT     H124754   0.456   3.237   1.528
 3601WAT     H224755   0.473   3.170   1.663
 3602WAT      O24756   5.915   4.430   1.813
 3602WAT     H124757   5.889   4.370   1.743
 3602WAT     H224758   5.873   4.513   1.790
 3603WAT      O24759   4.044   0.274   0.992
 3603WAT     H124760   4.088   0.192   0.970
 3603WAT     H224761   4.071   0.336   0.925
 3604WAT      O24762   2.925   0.729   3.770
 3604WAT     H124763   2.965   0.650   3.734
 3604WAT     H224764   2.836   0.730   3.734
 3605WAT      O24765   4.469   4.512   8.369
 3605WAT     H124766   4.415   4.444   8.330
 3605WAT     H224767   4.452   4.590   8.316
 3606WAT      O24768   1.586   5.144   2.919
 3606WAT     H124769   1.610   5.206   2.850
 3606WAT     H224770   1.660   5.146   2.980
 3607WAT      O24771   4.177   6.092   2.417
 3607WAT     H124772   4.180   6.184   2.441
 3607WAT     H224773   4.260   6.075   2.374
 3608WAT      O24774   3.377   2.679   3.452
 3608WAT     H124775   3.375   2.591   3.491
 3608WAT     H224776   3.286   2.707   3.453
 3609WAT      O24777   1.712   5.968  10.627
 3609WAT     H124778   1.806   5.965  10.644
 3609WAT     H224779   1.680   5.882  10.654
 3610WAT      O24780   5.702   3.964   1.055
 3610WAT     H124781   5.794   3.962   1.082
 3610WAT     H224782   5.705   3.950   0.960
 3611WAT      O24783   5.768   2.525  11.164
 3611WAT     H124784   5.748   2.549  11.074
 3611WAT     H224785   5.685   2.493  11.200
 3612WAT      O24786   1.472   4.660  10.859
 3612WAT     H124787   1.457   4.581  10.809
 3612WAT     H224788   1.414   4.652  10.935
 3613WAT      O24789   6.157   3.964   3.474
 3613WAT     H124790   6.095   3.968   3.546
 3613WAT     H224791   6.121   4.024   3.408
 3614WAT      O24792   3.130   0.628  10.649
 3614WAT     H124793   3.161   0.578  10.573
 3614WAT     H224794   3.111   0.561  10.715
 3615WAT      O24795   0.018   4.609   2.617
 3615WAT     H124796  -0.061   4.555   2.608
 3615WAT     H224797   0.052   4.586   2.704
 3616WAT      O24798   3.248   5.848   1.568
 3616WAT     H124799   3.171   5.807   1.606
 3616WAT     H224800   3.322   5.807   1.612
 3617WAT      O24801   0.875   6.115   0.962
 3617WAT     H124802   0.903   6.050   0.898
 3617WAT     H224803   0.783   6.131   0.942
 3618WAT      O24804   1.316   3.989   9.277
 3618WAT     H124805   1.316   3.899   9.310
 3618WAT     H224806   1.224   4.015   9.280
 3619WAT      O24807   4.156   2.655   9.599
 3619WAT     H124808   4.231   2.651   9.659
 3619WAT     H224809   4.160   2.573   9.550
 3620WAT      O24810   4.866   5.224   8.688
 3620WAT     H124811   4.836   5.198   8.601
 3620WAT     H224812   4.957   5.194   8.692
 3621WAT      O24813   0.886   4.770   1.577
 3621WAT     H124814   0.800   4.759   1.536
 3621WAT     H224815   0.938   4.696   1.546
 3622WAT      O24816   0.136   0.385   0.903
 3622WAT     H124817   0.141   0.354   0.993
 3622WAT     H224818   0.044   0.410   0.892
 3623WAT      O24819   2.843   5.212   2.904
 3623WAT     H124820   2.906   5.284   2.895
 3623WAT     H224821   2.770   5.238   2.848
 3624WAT      O24822   2.135   2.612   9.341
 3624WAT     H124823   2.051   2.582   9.375
 3624WAT     H224824   2.122   2.616   9.246
 3625WAT      O24825   3.144   5.744   8.197
 3625WAT     H124826   3.112   5.678   8.135
 3625WAT     H224827   3.183   5.812   8.141
 3626WAT      O24828   4.560   0.346  11.690
 3626WAT     H124829   4.589   0.274  11.633
 3626WAT     H224830   4.570   0.312  11.779
 3627WAT      O24831   1.841   4.552   3.550
 3627WAT     H124832   1.828   4.550   3.455
 3627WAT     H224833   1.822   4.462   3.578
 3628WAT      O24834   5.860   4.185  12.413
 3628WAT     H124835   5.823   4.121  12.352
 3628WAT     H224836   5.945   4.148  12.436
 3629WAT      O24837   1.660   3.282   1.251
 3629WAT     H124838   1.608   3.290   1.332
 3629WAT     H224839   1.610   3.331   1.186
 3630WAT      O24840   5.410   3.030  11.688
 3630WAT     H124841   5.324   3.011  11.726
 3630WAT     H224842   5.459   3.069  11.759
 3631WAT      O24843   0.173   1.855  12.358
 3631WAT     H124844   0.081   1.839  12.335
 3631WAT     H224845   0.214   1.768  12.355
 3632WAT      O24846   2.315   1.296   8.462
 3632WAT     H124847   2.221   1.310   8.450
 3632WAT     H224848   2.338   1.352   8.535
 3633WAT      O24849   4.216   2.893  12.477
 3633WAT     H124850   4.160   2.826  12.438
 3633WAT     H224851   4.285   2.907  12.412
 3634WAT      O24852   1.980   0.893   1.176
 3634WAT     H124853   1.921   0.884   1.102
 3634WAT     H224854   1.944   0.835   1.243
 3635WAT      O24855   0.424   0.378  11.556
 3635WAT     H124856   0.483   0.430  11.502
 3635WAT     H224857   0.383   0.441  11.615
 3636WAT      O24858   5.576   2.562   1.559
 3636WAT     H124859   5.483   2.583   1.572
 3636WAT     H224860   5.593   2.588   1.469
 3637WAT      O24861   1.871   0.730   9.963
 3637WAT     H124862   1.850   0.822   9.982
 3637WAT     H224863   1.965   0.723   9.978
 3638WAT      O24864   4.317   3.539   9.373
 3638WAT     H124865   4.270   3.549   9.456
 3638WAT     H224866   4.306   3.446   9.351
 3639WAT      O24867   0.200   3.939  11.875
 3639WAT     H124868   0.237   3.888  11.802
 3639WAT     H224869   0.273   3.948  11.937
 3640WAT      O24870   3.541   1.705   3.967
 3640WAT     H124871   3.556   1.613   3.945
 3640WAT     H224872   3.445   1.713   3.969
 3641WAT      O24873   4.348   3.025   8.633
 3641WAT     H124874   4.442   3.010   8.637
 3641WAT     H224875   4.315   2.991   8.716
 3642WAT      O24876   2.886   5.697  11.685
 3642WAT     H124877   2.917   5.787  11.695
 3642WAT     H224878   2.915   5.653  11.765
 3643WAT      O24879   3.726   1.829  11.260
 3643WAT     H124880   3.722   1.893  11.330
 3643WAT     H224881   3.696   1.748  11.300
 3644WAT      O24882   6.163   4.764   0.140
 3644WAT     H124883   6.225   4.816   0.191
 3644WAT     H224884   6.118   4.828   0.084
 3645WAT      O24885   2.908   6.106   2.348
 3645WAT     H124886   2.869   6.036   2.295
 3645WAT     H224887   2.949   6.060   2.421
 3646WAT      O24888   4.180   4.934   1.028
 3646WAT     H124889   4.216   4.993   0.961
 3646WAT     H224890   4.194   4.980   1.110
 3647WAT      O24891   0.232   2.849   0.496
 3647WAT     H124892   0.241   2.758   0.524
 3647WAT     H224893   0.276   2.900   0.564
 3648WAT      O24894   2.264   3.204  12.094
 3648WAT     H124895   2.332   3.272  12.083
 3648WAT     H224896   2.254   3.196  12.189
 3649WAT      O24897   0.707   3.780  12.594
 3649WAT     H124898   0.743   3.839  12.660
 3649WAT     H224899   0.774   3.713  12.583
 3650WAT      O24900   0.315   2.254  10.326
 3650WAT     H124901   0.369   2.332  10.311
 3650WAT     H224902   0.300   2.254  10.420
 3651WAT      O24903   1.523   5.124   3.433
 3651WAT     H124904   1.576   5.193   3.471
 3651WAT     H224905   1.537   5.133   3.338
 3652WAT      O24906   5.764   0.180  11.238
 3652WAT     H124907   5.742   0.100  11.286
 3652WAT     H224908   5.859   0.176  11.227
 3653WAT      O24909   2.643   5.385   3.606
 3653WAT     H124910   2.595   5.361   3.527
 3653WAT     H224911   2.646   5.304   3.657
 3654WAT      O24912   1.181   3.707  12.110
 3654WAT     H124913   1.134   3.648  12.051
 3654WAT     H224914   1.160   3.795  12.078
 3655WAT      O24915   1.384   1.136   9.272
 3655WAT     H124916   1.333   1.186   9.209
 3655WAT     H224917   1.404   1.054   9.227
 3656WAT      O24918   2.791   3.517  11.057
 3656WAT     H124919   2.867   3.461  11.072
 3656WAT     H224920   2.719   3.471  11.100
 3657WAT      O24921   1.954   2.305   2.752
 3657WAT     H124922   1.956   2.246   2.676
 3657WAT     H224923   1.861   2.322   2.767
 3658WAT      O24924   4.655   4.824   3.177
 3658WAT     H124925   4.680   4.744   3.131
 3658WAT     H224926   4.702   4.893   3.132
 3659WAT      O24927   3.073   3.364   3.339
 3659WAT     H124928   3.023   3.291   3.302
 3659WAT     H224929   3.024   3.388   3.418
 3660WAT      O24930   1.714   2.120   3.646
 3660WAT     H124931   1.726   2.028   3.667
 3660WAT     H224932   1.690   2.161   3.730
 3661WAT      O24933   3.184   5.275   4.529
 3661WAT     H124934   3.225   5.253   4.612
 3661WAT     H224935   3.097   5.309   4.554
 3662WAT      O24936   1.015   0.419   0.093
 3662WAT     H124937   1.038   0.330   0.121
 3662WAT     H224938   1.001   0.412  -0.001
 3663WAT      O24939   3.900   4.546   7.534
 3663WAT     H124940   3.951   4.624   7.557
 3663WAT     H224941   3.819   4.555   7.584
 3664WAT      O24942   4.818   1.320   8.599
 3664WAT     H124943   4.748   1.386   8.592
 3664WAT     H224944   4.775   1.244   8.637
 3665WAT      O24945   0.381   5.552   3.348
 3665WAT     H124946   0.452   5.594   3.300
 3665WAT     H224947   0.320   5.523   3.280
 3666WAT      O24948   1.003   2.979   4.120
 3666WAT     H124949   0.943   2.985   4.194
 3666WAT     H224950   0.965   3.035   4.053
 3667WAT      O24951   0.148   3.042   0.859
 3667WAT     H124952   0.115   2.952   0.862
 3667WAT     H224953   0.089   3.087   0.798
 3668WAT      O24954   4.711   0.342   9.105
 3668WAT     H124955   4.747   0.354   9.017
 3668WAT     H224956   4.741   0.254   9.132
 3669WAT      O24957   6.111   0.304   1.727
 3669WAT     H124958   6.094   0.216   1.763
 3669WAT     H224959   6.040   0.319   1.665
 3670WAT      O24960   1.263   4.414  11.841
 3670WAT     H124961   1.309   4.495  11.863
 3670WAT     H224962   1.289   4.352  11.909
 3671WAT      O24963   0.611   2.729   8.815
 3671WAT     H124964   0.661   2.810   8.804
 3671WAT     H224965   0.650   2.669   8.751
 3672WAT      O24966   0.549   4.818  10.879
 3672WAT     H124967   0.632   4.775  10.855
 3672WAT     H224968   0.482   4.758  10.847
 3673WAT      O24969   2.020   3.156  10.651
 3673WAT     H124970   2.085   3.093  10.620
 3673WAT     H224971   1.947   3.147  10.591
 3674WAT      O24972   1.860   3.706   2.654
 3674WAT     H124973   1.941   3.704   2.603
 3674WAT     H224974   1.889   3.710   2.745
 3675WAT      O24975   2.304   0.029   0.005
 3675WAT     H124976   2.213   0.047   0.026
 3675WAT     H224977   2.344   0.005   0.088
 3676WAT      O24978   4.031   2.014   9.779
 3676WAT     H124979   4.042   1.964   9.698
 3676WAT     H224980   3.993   2.098   9.751
 3677WAT      O24981   1.374   2.076   0.088
 3677WAT     H124982   1.425   2.008   0.132
 3677WAT     H224983   1.401   2.158   0.130
 3678WAT      O24984   0.746   3.743   0.704
 3678WAT     H124985   0.731   3.776   0.616
 3678WAT     H224986   0.665   3.696   0.727
 3679WAT      O24987   3.888   2.430   3.309
 3679WAT     H124988   3.794   2.414   3.296
 3679WAT     H224989   3.931   2.371   3.247
 3680WAT      O24990   4.375   4.307   3.834
 3680WAT     H124991   4.438   4.251   3.790
 3680WAT     H224992   4.428   4.368   3.886
 3681WAT      O24993   0.676   1.483   2.192
 3681WAT     H124994   0.663   1.575   2.168
 3681WAT     H224995   0.755   1.484   2.247
 3682WAT      O24996   3.878   1.548   2.688
 3682WAT     H124997   3.799   1.520   2.733
 3682WAT     H224998   3.858   1.539   2.595
 3683WAT      O24999   4.823   0.853   2.366
 3683WAT     H125000   4.778   0.814   2.440
 3683WAT     H225001   4.765   0.923   2.336
 3684WAT      O25002   4.599   3.995   4.711
 3684WAT     H125003   4.513   3.999   4.753
 3684WAT     H225004   4.597   3.912   4.662
 3685WAT      O25005   4.643   5.626   9.006
 3685WAT     H125006   4.700   5.572   8.951
 3685WAT     H225007   4.594   5.679   8.944
 3686WAT      O25008   5.462   4.002   0.138
 3686WAT     H125009   5.401   4.059   0.092
 3686WAT     H225010   5.459   4.032   0.229
 3687WAT      O25011   2.614   2.583   0.319
 3687WAT     H125012   2.626   2.498   0.275
 3687WAT     H225013   2.608   2.646   0.247
 3688WAT      O25014   2.322   3.334   3.434
 3688WAT     H125015   2.344   3.251   3.393
 3688WAT     H225016   2.249   3.313   3.492
 3689WAT      O25017   3.049   5.849   0.988
 3689WAT     H125018   2.963   5.863   0.949
 3689WAT     H225019   3.036   5.865   1.082
 3690WAT      O25020   3.600   0.828   1.191
 3690WAT     H125021   3.567   0.867   1.110
 3690WAT     H225022   3.547   0.868   1.260
 3691WAT      O25023   0.573   4.695   9.842
 3691WAT     H125024   0.589   4.655   9.757
 3691WAT     H225025   0.624   4.776   9.842
 3692WAT      O25026   2.321   3.439   1.811
 3692WAT     H125027   2.303   3.437   1.905
 3692WAT     H225028   2.253   3.384   1.772
 3693WAT      O25029   0.109   2.861  10.849
 3693WAT     H125030   0.129   2.774  10.885
 3693WAT     H225031   0.082   2.913  10.925
 3694WAT      O25032   4.225   3.699   2.952
 3694WAT     H125033   4.294   3.672   2.893
 3694WAT     H225034   4.147   3.650   2.924
 3695WAT      O25035   4.774   1.079   9.738
 3695WAT     H125036   4.839   1.024   9.780
 3695WAT     H225037   4.769   1.157   9.793
 3696WAT      O25038   2.579   5.693   8.844
 3696WAT     H125039   2.613   5.623   8.901
 3696WAT     H225040   2.650   5.713   8.784
 3697WAT      O25041   3.508   3.269  12.369
 3697WAT     H125042   3.494   3.357  12.405
 3697WAT     H225043   3.548   3.285  12.283
 3698WAT      O25044   3.345   5.344   3.404
 3698WAT     H125045   3.439   5.334   3.421
 3698WAT     H225046   3.320   5.423   3.451
 3699WAT      O25047   0.366   0.417   2.351
 3699WAT     H125048   0.444   0.361   2.358
 3699WAT     H225049   0.375   0.461   2.267
 3700WAT      O25050   6.071   6.007   1.736
 3700WAT     H125051   6.091   5.972   1.649
 3700WAT     H225052   6.043   6.097   1.720
 3701WAT      O25053   5.354   2.852   7.975
 3701WAT     H125054   5.429   2.815   8.021
 3701WAT     H225055   5.286   2.786   7.984
 3702WAT      O25056   4.757   5.564  11.565
 3702WAT     H125057   4.829   5.595  11.510
 3702WAT     H225058   4.717   5.494  11.514
 3703WAT      O25059   5.899   2.858   2.202
 3703WAT     H125060   5.805   2.845   2.215
 3703WAT     H225061   5.932   2.772   2.177
 3704WAT      O25062   3.396   0.636   2.424
 3704WAT     H125063   3.418   0.558   2.373
 3704WAT     H225064   3.353   0.603   2.502
 3705WAT      O25065   0.122   1.429   3.198
 3705WAT     H125066   0.157   1.404   3.113
 3705WAT     H225067   0.198   1.434   3.255
 3706WAT      O25068   3.034   3.759   1.666
 3706WAT     H125069   3.038   3.684   1.725
 3706WAT     H225070   3.081   3.731   1.588
 3707WAT      O25071   4.774   0.965  11.803
 3707WAT     H125072   4.708   1.034  11.811
 3707WAT     H225073   4.739   0.905  11.738
 3708WAT      O25074   6.047   1.022   7.958
 3708WAT     H125075   6.035   0.959   7.887
 3708WAT     H225076   6.053   1.107   7.914
 3709WAT      O25077   5.815   3.036   0.859
 3709WAT     H125078   5.777   3.098   0.921
 3709WAT     H225079   5.854   3.090   0.790
 3710WAT      O25080   6.098   5.398   8.386
 3710WAT     H125081   6.038   5.468   8.358
 3710WAT     H225082   6.113   5.347   8.307
 3711WAT      O25083   4.530   3.884  10.086
 3711WAT     H125084   4.584   3.877  10.008
 3711WAT     H225085   4.448   3.839  10.064
 3712WAT      O25086   4.631   3.152  10.262
 3712WAT     H125087   4.681   3.234  10.259
 3712WAT     H225088   4.612   3.139  10.354
 3713WAT      O25089   2.489   2.001  12.450
 3713WAT     H125090   2.551   2.023  12.519
 3713WAT     H225091   2.434   2.079  12.441
 3714WAT      O25092   4.772   2.402   0.068
 3714WAT     H125093   4.732   2.328   0.113
 3714WAT     H225094   4.710   2.474   0.080
 3715WAT      O25095   5.207   0.177   1.695
 3715WAT     H125096   5.153   0.251   1.666
 3715WAT     H225097   5.223   0.126   1.616
 3716WAT      O25098   5.163   2.931   0.614
 3716WAT     H125099   5.235   2.873   0.590
 3716WAT     H225100   5.169   2.939   0.709
 3717WAT      O25101   1.129   0.158  11.777
 3717WAT     H125102   1.131   0.231  11.716
 3717WAT     H225103   1.186   0.092  11.738
 3718WAT      O25104   1.233   5.989   4.037
 3718WAT     H125105   1.141   5.968   4.053
 3718WAT     H225106   1.255   5.942   3.957
 3719WAT      O25107   1.144   1.729   9.115
 3719WAT     H125108   1.175   1.661   9.174
 3719WAT     H225109   1.186   1.810   9.146
 3720WAT      O25110   3.429   0.641   3.132
 3720WAT     H125111   3.381   0.703   3.076
 3720WAT     H225112   3.375   0.563   3.133
 3721WAT      O25113   3.615   3.818   3.889
 3721WAT     H125114   3.621   3.793   3.797
 3721WAT     H225115   3.568   3.901   3.889
 3722WAT      O25116   2.548   6.171   4.183
 3722WAT     H125117   2.457   6.181   4.155
 3722WAT     H225118   2.561   6.242   4.247
 3723WAT      O25119   3.942   5.633   3.405
 3723WAT     H125120   3.861   5.586   3.427
 3723WAT     H225121   3.999   5.565   3.368
 3724WAT      O25122   2.570   2.559  10.809
 3724WAT     H125123   2.624   2.638  10.808
 3724WAT     H225124   2.487   2.587  10.849
 3725WAT      O25125   5.418   6.114   3.973
 3725WAT     H125126   5.325   6.127   3.992
 3725WAT     H225127   5.457   6.090   4.057
 3726WAT      O25128   3.304   3.338   8.220
 3726WAT     H125129   3.267   3.373   8.139
 3726WAT     H225130   3.314   3.244   8.203
 3727WAT      O25131   3.364   3.911   9.382
 3727WAT     H125132   3.285   3.897   9.435
 3727WAT     H225133   3.336   3.894   9.293
 3728WAT      O25134   2.873   5.010  11.428
 3728WAT     H125135   2.957   5.041  11.394
 3728WAT     H225136   2.811   5.027  11.357
 3729WAT      O25137   1.418   2.945  11.847
 3729WAT     H125138   1.372   2.949  11.763
 3729WAT     H225139   1.398   2.857  11.880
 3730WAT      O25140   3.981   5.055   9.437
 3730WAT     H125141   4.059   5.087   9.483
 3730WAT     H225142   3.996   4.961   9.426
 3731WAT      O25143   2.555   2.724   0.538
 3731WAT     H125144   2.486   2.680   0.588
 3731WAT     H225145   2.548   2.686   0.451
 3732WAT      O25146   2.145   3.378   3.246
 3732WAT     H125147   2.094   3.458   3.232
 3732WAT     H225148   2.198   3.396   3.324
 3733WAT      O25149   1.600   2.847  12.223
 3733WAT     H125150   1.515   2.875  12.189
 3733WAT     H225151   1.659   2.920  12.204
 3734WAT      O25152   0.570   4.800   1.695
 3734WAT     H125153   0.545   4.724   1.643
 3734WAT     H225154   0.623   4.765   1.766
 3735WAT      O25155   0.205   3.044   1.493
 3735WAT     H125156   0.277   3.100   1.523
 3735WAT     H225157   0.248   2.967   1.456
 3736WAT      O25158   5.756   2.869   8.335
 3736WAT     H125159   5.847   2.860   8.363
 3736WAT     H225160   5.708   2.808   8.390
 3737WAT      O25161   0.812   4.398  11.819
 3737WAT     H125162   0.757   4.451  11.761
 3737WAT     H225163   0.793   4.308  11.795
 3738WAT      O25164   5.340   2.148   3.807
 3738WAT     H125165   5.268   2.208   3.788
 3738WAT     H225166   5.317   2.108   3.891
 3739WAT      O25167   1.016   3.645   5.049
 3739WAT     H125168   0.930   3.644   5.090
 3739WAT     H225169   1.076   3.667   5.120
 3740WAT      O25170   5.833   5.260   4.588
 3740WAT     H125171   5.790   5.308   4.517
 3740WAT     H225172   5.922   5.296   4.591
 3741WAT      O25173   5.791   1.571   3.978
 3741WAT     H125174   5.837   1.653   3.995
 3741WAT     H225175   5.860   1.505   3.973
 3742WAT      O25176   2.838   1.274   8.645
 3742WAT     H125177   2.798   1.353   8.608
 3742WAT     H225178   2.825   1.207   8.578
 3743WAT      O25179   5.537   4.302  10.457
 3743WAT     H125180   5.453   4.260  10.439
 3743WAT     H225181   5.558   4.349  10.376
 3744WAT      O25182   5.945   1.778   3.991
 3744WAT     H125183   6.037   1.764   4.013
 3744WAT     H225184   5.925   1.866   4.023
 3745WAT      O25185   3.956   0.886   8.326
 3745WAT     H125186   3.991   0.908   8.239
 3745WAT     H225187   3.954   0.970   8.372
 3746WAT      O25188   1.927   4.358  12.212
 3746WAT     H125189   1.991   4.392  12.150
 3746WAT     H225190   1.978   4.345  12.293
 3747WAT      O25191   1.266   4.480   4.680
 3747WAT     H125192   1.312   4.460   4.598
 3747WAT     H225193   1.251   4.574   4.676
 3748WAT      O25194   1.423   6.034   2.520
 3748WAT     H125195   1.334   6.068   2.519
 3748WAT     H225196   1.416   5.949   2.562
 3749WAT      O25197   0.202   1.681   3.455
 3749WAT     H125198   0.246   1.608   3.410
 3749WAT     H225199   0.270   1.721   3.508
 3750WAT      O25200   0.303   0.276  12.366
 3750WAT     H125201   0.242   0.202  12.363
 3750WAT     H225202   0.258   0.346  12.319
 3751WAT      O25203   5.518   3.104   0.222
 3751WAT     H125204   5.519   3.185   0.170
 3751WAT     H225205   5.554   3.130   0.307
 3752WAT      O25206   1.449   0.310   9.548
 3752WAT     H125207   1.379   0.275   9.602
 3752WAT     H225208   1.528   0.267   9.581
 3753WAT      O25209   5.370   5.120   9.578
 3753WAT     H125210   5.441   5.057   9.589
 3753WAT     H225211   5.290   5.070   9.595
 3754WAT      O25212   3.463   5.333   1.771
 3754WAT     H125213   3.502   5.399   1.714
 3754WAT     H225214   3.378   5.369   1.794
 3755WAT      O25215   0.276   2.504   3.171
 3755WAT     H125216   0.279   2.502   3.266
 3755WAT     H225217   0.365   2.486   3.143
 3756WAT      O25218   3.607   0.914   9.199
 3756WAT     H125219   3.576   0.904   9.289
 3756WAT     H225220   3.701   0.931   9.208
 3757WAT      O25221   0.040   1.333   0.183
 3757WAT     H125222  -0.012   1.361   0.108
 3757WAT     H225223   0.022   1.239   0.191
 3758WAT      O25224   5.281   4.958  10.492
 3758WAT     H125225   5.346   5.027  10.479
 3758WAT     H225226   5.299   4.925  10.581
 3759WAT      O25227   4.105   5.058   3.500
 3759WAT     H125228   4.082   5.009   3.579
 3759WAT     H225229   4.085   5.149   3.522
 3760WAT      O25230   0.778   0.244  12.357
 3760WAT     H125231   0.755   0.229  12.266
 3760WAT     H225232   0.696   0.266  12.400
 3761WAT      O25233   6.139   2.472   8.326
 3761WAT     H125234   6.173   2.475   8.415
 3761WAT     H225235   6.050   2.505   8.332
 3762WAT      O25236   3.554   1.734   1.946
 3762WAT     H125237   3.587   1.752   1.858
 3762WAT     H225238   3.576   1.642   1.961
 3763WAT      O25239   4.252   5.417   2.931
 3763WAT     H125240   4.293   5.339   2.895
 3763WAT     H225241   4.159   5.393   2.940
 3764WAT      O25242   4.117   3.131   1.331
 3764WAT     H125243   4.203   3.144   1.371
 3764WAT     H225244   4.076   3.217   1.333
 3765WAT      O25245   5.148   4.316   9.770
 3765WAT     H125246   5.078   4.252   9.761
 3765WAT     H225247   5.104   4.399   9.785
 3766WAT      O25248   0.651   0.891   7.819
 3766WAT     H125249   0.726   0.849   7.862
 3766WAT     H225250   0.651   0.980   7.855
 3767WAT      O25251   2.708   2.061   3.353
 3767WAT     H125252   2.669   1.999   3.291
 3767WAT     H225253   2.735   2.135   3.298
 3768WAT      O25254   1.056   5.073   2.318
 3768WAT     H125255   1.138   5.025   2.325
 3768WAT     H225256   1.080   5.165   2.334
 3769WAT      O25257   0.654   2.659   0.973
 3769WAT     H125258   0.715   2.611   0.917
 3769WAT     H225259   0.642   2.603   1.049
 3770WAT      O25260   0.148   3.567  11.643
 3770WAT     H125261   0.227   3.558  11.589
 3770WAT     H225262   0.077   3.578  11.579
 3771WAT      O25263   1.507   0.178   3.959
 3771WAT     H125264   1.550   0.226   4.030
 3771WAT     H225265   1.430   0.140   3.999
 3772WAT      O25266  -0.026   0.873   0.798
 3772WAT     H125267   0.032   0.947   0.811
 3772WAT     H225268   0.030   0.803   0.766
 3773WAT      O25269   0.339   2.545  12.200
 3773WAT     H125270   0.298   2.625  12.168
 3773WAT     H225271   0.286   2.474  12.164
 3774WAT      O25272   4.437   4.257  11.070
 3774WAT     H125273   4.517   4.293  11.109
 3774WAT     H225274   4.387   4.224  11.144
 3775WAT      O25275   1.407   2.452   3.159
 3775WAT     H125276   1.399   2.530   3.214
 3775WAT     H225277   1.490   2.412   3.186
 3776WAT      O25278   1.174   0.446   0.687
 3776WAT     H125279   1.143   0.532   0.717
 3776WAT     H225280   1.191   0.398   0.768
 3777WAT      O25281   0.267   5.694  11.923
 3777WAT     H125282   0.259   5.603  11.892
 3777WAT     H225283   0.361   5.710  11.927
 3778WAT      O25284   4.120   2.180   2.823
 3778WAT     H125285   4.090   2.271   2.821
 3778WAT     H225286   4.089   2.146   2.906
 3779WAT      O25287   4.051   1.645   9.351
 3779WAT     H125288   4.015   1.556   9.346
 3779WAT     H225289   4.000   1.695   9.287
 3780WAT      O25290   1.280   2.554   9.555
 3780WAT     H125291   1.251   2.564   9.465
 3780WAT     H225292   1.300   2.461   9.564
 3781WAT      O25293   3.428   4.529   8.970
 3781WAT     H125294   3.334   4.511   8.971
 3781WAT     H225295   3.469   4.445   8.988
 3782WAT      O25296   5.361   4.852  11.075
 3782WAT     H125297   5.453   4.855  11.051
 3782WAT     H225298   5.360   4.848  11.170
 3783WAT      O25299   0.490   3.755  11.108
 3783WAT     H125300   0.434   3.757  11.030
 3783WAT     H225301   0.518   3.663  11.114
 3784WAT      O25302   1.267   1.290   9.064
 3784WAT     H125303   1.249   1.370   9.015
 3784WAT     H225304   1.227   1.220   9.013
 3785WAT      O25305   3.631   2.713   3.868
 3785WAT     H125306   3.570   2.769   3.819
 3785WAT     H225307   3.704   2.699   3.808
 3786WAT      O25308   2.521   3.256   3.721
 3786WAT     H125309   2.571   3.330   3.755
 3786WAT     H225310   2.474   3.221   3.797
 3787WAT      O25311   2.262   2.288   0.641
 3787WAT     H125312   2.354   2.281   0.668
 3787WAT     H225313   2.261   2.257   0.551
 3788WAT      O25314   3.079   0.192  10.057
 3788WAT     H125315   3.044   0.157  10.139
 3788WAT     H225316   3.004   0.196   9.998
 3789WAT      O25317   1.356   0.830   1.428
 3789WAT     H125318   1.421   0.761   1.421
 3789WAT     H225319   1.378   0.892   1.359
 3790WAT      O25320   4.370   3.012  10.818
 3790WAT     H125321   4.286   2.969  10.801
 3790WAT     H225322   4.435   2.957  10.774
 3791WAT      O25323   5.230   4.876   9.385
 3791WAT     H125324   5.240   4.965   9.352
 3791WAT     H225325   5.250   4.883   9.478
 3792WAT      O25326   5.438   4.682   0.777
 3792WAT     H125327   5.430   4.679   0.682
 3792WAT     H225328   5.462   4.772   0.797
 3793WAT      O25329   0.182   0.480   9.663
 3793WAT     H125330   0.090   0.463   9.684
 3793WAT     H225331   0.228   0.399   9.686
 3794WAT      O25332   6.254   2.471   2.724
 3794WAT     H125333   6.245   2.431   2.810
 3794WAT     H225334   6.167   2.466   2.685
 3795WAT      O25335   0.978   0.624  10.348
 3795WAT     H125336   0.985   0.529  10.339
 3795WAT     H225337   0.983   0.640  10.443
 3796WAT      O25338   4.088   0.830  10.234
 3796WAT     H125339   4.116   0.785  10.154
 3796WAT     H225340   4.163   0.822  10.293
 3797WAT      O25341   5.459   1.251   3.271
 3797WAT     H125342   5.532   1.267   3.212
 3797WAT     H225343   5.385   1.297   3.230
 3798WAT      O25344   1.324   4.247  12.061
 3798WAT     H125345   1.356   4.163  12.028
 3798WAT     H225346   1.257   4.224  12.125
 3799WAT      O25347   5.005   2.968   4.475
 3799WAT     H125348   5.017   3.049   4.525
 3799WAT     H225349   4.926   2.929   4.513
 3800WAT      O25350   2.162   4.804  12.411
 3800WAT     H125351   2.145   4.796  12.505
 3800WAT     H225352   2.080   4.780  12.369
 3801WAT      O25353   3.397   1.436   9.804
 3801WAT     H125354   3.301   1.436   9.804
 3801WAT     H225355   3.421   1.498   9.874
 3802WAT      O25356   5.429   5.829   2.599
 3802WAT     H125357   5.470   5.808   2.682
 3802WAT     H225358   5.417   5.924   2.602
 3803WAT      O25359   5.283   1.710   1.787
 3803WAT     H125360   5.230   1.662   1.850
 3803WAT     H225361   5.231   1.712   1.707
 3804WAT      O25362   4.974   2.116   8.908
 3804WAT     H125363   5.047   2.175   8.886
 3804WAT     H225364   4.951   2.075   8.825
 3805WAT      O25365   4.732   5.692  10.401
 3805WAT     H125366   4.765   5.627  10.463
 3805WAT     H225367   4.694   5.640  10.330
 3806WAT      O25368   1.413   1.370   2.925
 3806WAT     H125369   1.489   1.395   2.873
 3806WAT     H225370   1.399   1.445   2.983
 3807WAT      O25371   0.977   5.790   0.154
 3807WAT     H125372   0.941   5.709   0.190
 3807WAT     H225373   0.965   5.783   0.060
 3808WAT      O25374   0.793   1.411   1.888
 3808WAT     H125375   0.813   1.494   1.930
 3808WAT     H225376   0.722   1.431   1.827
 3809WAT      O25377   0.585   0.224  11.277
 3809WAT     H125378   0.679   0.209  11.287
 3809WAT     H225379   0.567   0.201  11.186
 3810WAT      O25380   3.729   4.780  11.777
 3810WAT     H125381   3.679   4.860  11.792
 3810WAT     H225382   3.663   4.710  11.773
 3811WAT      O25383   3.431   1.180   0.866
 3811WAT     H125384   3.352   1.232   0.857
 3811WAT     H225385   3.502   1.244   0.862
 3812WAT      O25386   1.518   2.088   4.835
 3812WAT     H125387   1.479   2.098   4.922
 3812WAT     H225388   1.466   2.019   4.793
 3813WAT      O25389   1.218   6.153  10.098
 3813WAT     H125390   1.182   6.241  10.085
 3813WAT     H225391   1.297   6.168  10.150
 3814WAT      O25392   1.831   3.461   1.552
 3814WAT     H125393   1.861   3.419   1.632
 3814WAT     H225394   1.911   3.495   1.511
 3815WAT      O25395   2.658   4.738   1.129
 3815WAT     H125396   2.748   4.706   1.137
 3815WAT     H225397   2.666   4.822   1.084
 3816WAT      O25398   5.823   4.963   3.617
 3816WAT     H125399   5.895   5.026   3.618
 3816WAT     H225400   5.744   5.017   3.611
 3817WAT      O25401   3.278   4.316   3.220
 3817WAT     H125402   3.221   4.290   3.148
 3817WAT     H225403   3.253   4.258   3.292
 3818WAT      O25404   3.225   4.278  12.166
 3818WAT     H125405   3.282   4.309  12.237
 3818WAT     H225406   3.245   4.336  12.092
 3819WAT      O25407   5.100   0.420   3.197
 3819WAT     H125408   5.108   0.341   3.143
 3819WAT     H225409   5.035   0.474   3.151
 3820WAT      O25410   0.295   6.042  11.184
 3820WAT     H125411   0.279   6.050  11.278
 3820WAT     H225412   0.390   6.050  11.175
 3821WAT      O25413   5.834   4.785  12.047
 3821WAT     H125414   5.923   4.752  12.057
 3821WAT     H225415   5.843   4.880  12.045
 3822WAT      O25416   5.544   0.591   4.391
 3822WAT     H125417   5.639   0.583   4.402
 3822WAT     H225418   5.508   0.512   4.429
 3823WAT      O25419   3.622   0.038   1.952
 3823WAT     H125420   3.709   0.006   1.975
 3823WAT     H225421   3.633   0.132   1.938
 3824WAT      O25422   1.994   2.124   4.357
 3824WAT     H125423   1.932   2.179   4.405
 3824WAT     H225424   2.008   2.048   4.415
 3825WAT      O25425   2.517   0.648   2.696
 3825WAT     H125426   2.543   0.715   2.759
 3825WAT     H225427   2.515   0.693   2.612
 3826WAT      O25428   5.683   4.558  11.059
 3826WAT     H125429   5.705   4.469  11.085
 3826WAT     H225430   5.690   4.608  11.141
 3827WAT      O25431   3.644   5.615  10.621
 3827WAT     H125432   3.711   5.591  10.557
 3827WAT     H225433   3.569   5.558  10.600
 3828WAT      O25434   4.098   0.126  11.235
 3828WAT     H125435   4.006   0.123  11.211
 3828WAT     H225436   4.101   0.178  11.315
 3829WAT      O25437   4.116   4.150   9.940
 3829WAT     H125438   4.031   4.165   9.982
 3829WAT     H225439   4.097   4.155   9.846
 3830WAT      O25440   5.686   0.542  11.824
 3830WAT     H125441   5.749   0.596  11.873
 3830WAT     H225442   5.614   0.603  11.803
 3831WAT      O25443   0.069   4.208  10.516
 3831WAT     H125444   0.019   4.128  10.503
 3831WAT     H225445   0.131   4.187  10.585
 3832WAT      O25446   5.784   5.480  11.582
 3832WAT     H125447   5.789   5.387  11.603
 3832WAT     H225448   5.690   5.500  11.583
 3833WAT      O25449   1.365   3.498  12.579
 3833WAT     H125450   1.381   3.474  12.670
 3833WAT     H225451   1.425   3.570  12.562
 3834WAT      O25452   5.798   2.131   2.819
 3834WAT     H125453   5.882   2.110   2.778
 3834WAT     H225454   5.735   2.133   2.747
 3835WAT      O25455   4.420   5.171   0.861
 3835WAT     H125456   4.460   5.255   0.842
 3835WAT     H225457   4.370   5.185   0.942
 3836WAT      O25458   2.993   2.265   1.519
 3836WAT     H125459   2.949   2.264   1.604
 3836WAT     H225460   2.925   2.239   1.457
 3837WAT      O25461   1.267   1.292   1.462
 3837WAT     H125462   1.182   1.280   1.504
 3837WAT     H225463   1.259   1.243   1.380
 3838WAT      O25464   2.800   5.618   8.410
 3838WAT     H125465   2.850   5.540   8.434
 3838WAT     H225466   2.721   5.584   8.367
 3839WAT      O25467   2.006   4.723   0.540
 3839WAT     H125468   2.002   4.755   0.450
 3839WAT     H225469   2.068   4.650   0.537
 3840WAT      O25470   3.073   5.201   8.240
 3840WAT     H125471   3.161   5.198   8.203
 3840WAT     H225472   3.023   5.137   8.190
 3841WAT      O25473   3.064   5.322   2.394
 3841WAT     H125474   3.141   5.367   2.427
 3841WAT     H225475   3.067   5.336   2.299
 3842WAT      O25476   1.152   4.462   8.391
 3842WAT     H125477   1.181   4.467   8.300
 3842WAT     H225478   1.106   4.378   8.397
 3843WAT      O25479   4.683   0.910   1.986
 3843WAT     H125480   4.605   0.965   2.001
 3843WAT     H225481   4.655   0.822   2.010
 3844WAT      O25482   2.611   5.409   2.385
 3844WAT     H125483   2.597   5.328   2.337
 3844WAT     H225484   2.671   5.386   2.456
 3845WAT      O25485  -0.001   2.469   1.910
 3845WAT     H125486   0.052   2.467   1.830
 3845WAT     H225487   0.033   2.543   1.960
 3846WAT      O25488   3.510   4.359   2.077
 3846WAT     H125489   3.566   4.346   2.000
 3846WAT     H225490   3.425   4.323   2.051
 3847WAT      O25491   2.102   3.020   8.537
 3847WAT     H125492   2.124   2.930   8.563
 3847WAT     H225493   2.153   3.034   8.456
 3848WAT      O25494   1.294   1.021  10.866
 3848WAT     H125495   1.266   1.010  10.957
 3848WAT     H225496   1.309   0.931  10.835
 3849WAT      O25497   3.865   6.056   3.214
 3849WAT     H125498   3.926   5.984   3.228
 3849WAT     H225499   3.883   6.117   3.286
 3850WAT      O25500   3.203   3.774  11.464
 3850WAT     H125501   3.261   3.713  11.511
 3850WAT     H225502   3.139   3.800  11.530
 3851WAT      O25503   1.495   2.165   9.312
 3851WAT     H125504   1.542   2.086   9.337
 3851WAT     H225505   1.524   2.183   9.223
 3852WAT      O25506   2.885   5.047   9.437
 3852WAT     H125507   2.803   4.998   9.444
 3852WAT     H225508   2.858   5.138   9.427
 3853WAT      O25509   5.748   0.794   0.337
 3853WAT     H125510   5.811   0.771   0.269
 3853WAT     H225511   5.677   0.730   0.328
 3854WAT      O25512   2.375   3.251   0.530
 3854WAT     H125513   2.325   3.169   0.535
 3854WAT     H225514   2.421   3.246   0.446
 3855WAT      O25515   3.439   2.981   0.434
 3855WAT     H125516   3.406   2.965   0.522
 3855WAT     H225517   3.501   3.054   0.444
 3856WAT      O25518   1.084   4.631   1.081
 3856WAT     H125519   1.034   4.613   1.002
 3856WAT     H225520   1.126   4.548   1.103
 3857WAT      O25521   2.226   0.577   3.053
 3857WAT     H125522   2.310   0.533   3.069
 3857WAT     H225523   2.237   0.618   2.968
 3858WAT      O25524   1.617   4.737   1.950
 3858WAT     H125525   1.630   4.670   1.883
 3858WAT     H225526   1.529   4.721   1.983
 3859WAT      O25527   3.167   4.427   9.733
 3859WAT     H125528   3.197   4.514   9.707
 3859WAT     H225529   3.210   4.410   9.817
 3860WAT      O25530   4.965   0.813   3.003
 3860WAT     H125531   4.939   0.845   3.090
 3860WAT     H225532   4.945   0.720   3.005
 3861WAT      O25533   5.877   0.957   2.378
 3861WAT     H125534   5.832   1.034   2.412
 3861WAT     H225535   5.869   0.891   2.447
 3862WAT      O25536   3.282   2.784  11.975
 3862WAT     H125537   3.274   2.820  11.886
 3862WAT     H225538   3.256   2.856  12.032
 3863WAT      O25539   1.889   1.258   3.269
 3863WAT     H125540   1.889   1.205   3.190
 3863WAT     H225541   1.974   1.302   3.269
 3864WAT      O25542   0.461   2.262  10.779
 3864WAT     H125543   0.491   2.353  10.774
 3864WAT     H225544   0.381   2.267  10.832
 3865WAT      O25545   1.198   1.545   0.494
 3865WAT     H125546   1.125   1.608   0.495
 3865WAT     H225547   1.196   1.505   0.581
 3866WAT      O25548   5.434   0.093   7.810
 3866WAT     H125549   5.514   0.107   7.860
 3866WAT     H225550   5.437   0.001   7.784
 3867WAT      O25551   2.862   0.730   9.692
 3867WAT     H125552   2.896   0.778   9.768
 3867WAT     H225553   2.792   0.675   9.727
 3868WAT      O25554   5.697   4.837   7.481
 3868WAT     H125555   5.655   4.920   7.457
 3868WAT     H225556   5.784   4.862   7.512
 3869WAT      O25557   0.835   2.531   3.056
 3869WAT     H125558   0.890   2.582   3.115
 3869WAT     H225559   0.893   2.511   2.982
 3870WAT      O25560   4.182   1.530   2.536
 3870WAT     H125561   4.217   1.513   2.624
 3870WAT     H225562   4.162   1.624   2.536
 3871WAT      O25563   5.119   0.890   1.333
 3871WAT     H125564   5.032   0.850   1.340
 3871WAT     H225565   5.101   0.983   1.317
 3872WAT      O25566   0.935   4.596  11.344
 3872WAT     H125567   0.949   4.673  11.400
 3872WAT     H225568   0.847   4.566  11.366
 3873WAT      O25569   0.065   3.329   1.493
 3873WAT     H125570   0.049   3.297   1.582
 3873WAT     H225571   0.093   3.252   1.445
 3874WAT      O25572   4.108   3.147   3.612
 3874WAT     H125573   4.049   3.071   3.610
 3874WAT     H225574   4.053   3.219   3.642
 3875WAT      O25575   1.449   1.534   2.232
 3875WAT     H125576   1.483   1.457   2.276
 3875WAT     H225577   1.509   1.605   2.258
 3876WAT      O25578   1.113   4.669   0.673
 3876WAT     H125579   1.153   4.751   0.700
 3876WAT     H225580   1.045   4.653   0.739
 3877WAT      O25581   4.734   0.420   1.607
 3877WAT     H125582   4.650   0.455   1.575
 3877WAT     H225583   4.709   0.356   1.674
 3878WAT      O25584   6.001   1.496  12.301
 3878WAT     H125585   6.086   1.539  12.301
 3878WAT     H225586   5.943   1.557  12.347
 3879WAT      O25587   4.291   4.330  10.217
 3879WAT     H125588   4.297   4.331  10.312
 3879WAT     H225589   4.298   4.238  10.193
 3880WAT      O25590   3.992   4.682   3.384
 3880WAT     H125591   4.022   4.636   3.463
 3880WAT     H225592   4.033   4.636   3.312
 3881WAT      O25593   0.173   0.542   8.746
 3881WAT     H125594   0.176   0.451   8.715
 3881WAT     H225595   0.202   0.594   8.671
 3882WAT      O25596   3.410   3.153   2.572
 3882WAT     H125597   3.344   3.110   2.627
 3882WAT     H225598   3.362   3.179   2.493
 3883WAT      O25599   5.058   2.117   8.544
 3883WAT     H125600   5.143   2.098   8.503
 3883WAT     H225601   5.061   2.211   8.561
 3884WAT      O25602   3.228   3.719   9.142
 3884WAT     H125603   3.196   3.664   9.071
 3884WAT     H225604   3.277   3.660   9.199
 3885WAT      O25605   5.494   0.227   9.258
 3885WAT     H125606   5.527   0.294   9.199
 3885WAT     H225607   5.424   0.184   9.208
 3886WAT      O25608   3.382   5.218   2.989
 3886WAT     H125609   3.297   5.175   2.991
 3886WAT     H225610   3.436   5.168   3.051
 3887WAT      O25611   4.644   5.221   0.290
 3887WAT     H125612   4.583   5.223   0.217
 3887WAT     H225613   4.589   5.223   0.368
 3888WAT      O25614   5.608   0.193   3.702
 3888WAT     H125615   5.581   0.101   3.693
 3888WAT     H225616   5.532   0.243   3.673
 3889WAT      O25617   2.653   4.903   0.152
 3889WAT     H125618   2.578   4.941   0.107
 3889WAT     H225619   2.693   4.977   0.199
 3890WAT      O25620   3.136   5.729   7.775
 3890WAT     H125621   3.185   5.755   7.697
 3890WAT     H225622   3.091   5.648   7.750
 3891WAT      O25623   5.960   2.158   0.292
 3891WAT     H125624   5.932   2.094   0.227
 3891WAT     H225625   5.905   2.235   0.275
 3892WAT      O25626   0.118   0.557   2.116
 3892WAT     H125627   0.185   0.618   2.147
 3892WAT     H225628   0.036   0.605   2.126
 3893WAT      O25629   1.828   0.639  12.120
 3893WAT     H125630   1.838   0.547  12.146
 3893WAT     H225631   1.900   0.684  12.163
 3894WAT      O25632   3.295   0.545   1.125
 3894WAT     H125633   3.386   0.538   1.153
 3894WAT     H225634   3.286   0.635   1.095
 3895WAT      O25635   5.584   3.853  12.394
 3895WAT     H125636   5.620   3.917  12.333
 3895WAT     H225637   5.657   3.831  12.452
 3896WAT      O25638   2.464   0.765   2.417
 3896WAT     H125639   2.438   0.678   2.386
 3896WAT     H225640   2.386   0.797   2.464
 3897WAT      O25641   0.244   3.928   0.485
 3897WAT     H125642   0.286   3.842   0.480
 3897WAT     H225643   0.172   3.924   0.422
 3898WAT      O25644   5.334   1.455  10.476
 3898WAT     H125645   5.266   1.398  10.511
 3898WAT     H225646   5.341   1.431  10.384
 3899WAT      O25647   3.070   4.113   9.419
 3899WAT     H125648   3.075   4.020   9.437
 3899WAT     H225649   2.986   4.126   9.375
 3900WAT      O25650   4.460   3.555  11.888
 3900WAT     H125651   4.433   3.521  11.973
 3900WAT     H225652   4.389   3.614  11.862
 3901WAT      O25653   3.356   3.672   4.602
 3901WAT     H125654   3.406   3.660   4.682
 3901WAT     H225655   3.404   3.621   4.536
 3902WAT      O25656   0.537   3.789   3.850
 3902WAT     H125657   0.589   3.830   3.919
 3902WAT     H225658   0.456   3.840   3.848
 3903WAT      O25659   4.778   2.963  12.654
 3903WAT     H125660   4.761   2.960  12.748
 3903WAT     H225661   4.764   3.054  12.629
 3904WAT      O25662   1.840   2.390  10.614
 3904WAT     H125663   1.749   2.407  10.640
 3904WAT     H225664   1.836   2.307  10.566
 3905WAT      O25665   4.390   2.011   2.919
 3905WAT     H125666   4.318   2.064   2.883
 3905WAT     H225667   4.347   1.933   2.953
 3906WAT      O25668   5.621   6.163   0.125
 3906WAT     H125669   5.672   6.243   0.109
 3906WAT     H225670   5.670   6.094   0.081
 3907WAT      O25671   0.451   4.834   8.999
 3907WAT     H125672   0.494   4.778   9.063
 3907WAT     H225673   0.388   4.777   8.954
 3908WAT      O25674   0.807   0.586   0.523
 3908WAT     H125675   0.846   0.607   0.438
 3908WAT     H225676   0.793   0.671   0.566
 3909WAT      O25677   5.353   2.121  11.473
 3909WAT     H125678   5.429   2.151  11.423
 3909WAT     H225679   5.282   2.116  11.409
 3910WAT      O25680   5.557   4.776   8.538
 3910WAT     H125681   5.586   4.722   8.465
 3910WAT     H225682   5.493   4.836   8.500
 3911WAT      O25683   2.525   0.470  10.754
 3911WAT     H125684   2.618   0.454  10.766
 3911WAT     H225685   2.503   0.425  10.672
 3912WAT      O25686   2.296   1.609  12.428
 3912WAT     H125687   2.377   1.636  12.385
 3912WAT     H225688   2.227   1.638  12.370
 3913WAT      O25689   1.004   4.154   0.065
 3913WAT     H125690   0.912   4.142   0.044
 3913WAT     H225691   1.050   4.119  -0.011
 3914WAT      O25692   1.655   0.309   3.260
 3914WAT     H125693   1.619   0.388   3.300
 3914WAT     H225694   1.615   0.307   3.173
 3915WAT      O25695   0.523   6.054   1.614
 3915WAT     H125696   0.534   6.080   1.706
 3915WAT     H225697   0.429   6.063   1.598
 3916WAT      O25698   0.897   4.200  11.229
 3916WAT     H125699   0.826   4.197  11.293
 3916WAT     H225700   0.873   4.135  11.163
 3917WAT      O25701   1.204   0.316  12.016
 3917WAT     H125702   1.223   0.244  12.075
 3917WAT     H225703   1.172   0.275  11.936
 3918WAT      O25704   4.128   4.317   3.673
 3918WAT     H125705   4.215   4.304   3.709
 3918WAT     H225706   4.126   4.265   3.592
 3919WAT      O25707   4.539   3.217  10.551
 3919WAT     H125708   4.585   3.181  10.627
 3919WAT     H225709   4.565   3.309  10.547
 3920WAT      O25710   1.468   1.377  12.606
 3920WAT     H125711   1.544   1.416  12.563
 3920WAT     H225712   1.446   1.438  12.677
 3921WAT      O25713   1.954   4.675   1.019
 3921WAT     H125714   2.009   4.617   1.071
 3921WAT     H225715   2.014   4.720   0.959
 3922WAT      O25716   2.009   6.188   1.518
 3922WAT     H125717   2.104   6.191   1.506
 3922WAT     H225718   1.996   6.119   1.584
 3923WAT      O25719   0.624   2.184   0.995
 3923WAT     H125720   0.666   2.099   1.000
 3923WAT     H225721   0.621   2.215   1.085
 3924WAT      O25722   4.906   2.922  10.910
 3924WAT     H125723   4.943   2.840  10.877
 3924WAT     H225724   4.892   2.906  11.003
 3925WAT      O25725   2.618   0.517   1.320
 3925WAT     H125726   2.571   0.542   1.240
 3925WAT     H225727   2.690   0.463   1.289
 3926WAT      O25728   4.945   6.061   2.980
 3926WAT     H125729   4.982   6.042   3.066
 3926WAT     H225730   5.022   6.078   2.925
 3927WAT      O25731   2.888   4.226   8.739
 3927WAT     H125732   2.965   4.177   8.708
 3927WAT     H225733   2.825   4.158   8.763
 3928WAT      O25734   6.234   3.757  11.490
 3928WAT     H125735   6.246   3.852  11.495
 3928WAT     H225736   6.190   3.743  11.407
 3929WAT      O25737   0.305   0.726   0.364
 3929WAT     H125738   0.278   0.815   0.385
 3929WAT     H225739   0.400   0.729   0.364
 3930WAT      O25740   2.406   4.751   4.711
 3930WAT     H125741   2.459   4.745   4.791
 3930WAT     H225742   2.372   4.840   4.711
 3931WAT      O25743   4.832   1.784   0.504
 3931WAT     H125744   4.794   1.700   0.529
 3931WAT     H225745   4.824   1.786   0.408
 3932WAT      O25746   2.703   2.032   0.692
 3932WAT     H125747   2.659   2.017   0.776
 3932WAT     H225748   2.774   1.968   0.691
 3933WAT      O25749   2.185   2.626   1.164
 3933WAT     H125750   2.275   2.649   1.190
 3933WAT     H225751   2.143   2.710   1.148
 3934WAT      O25752   1.473   0.578   9.533
 3934WAT     H125753   1.477   0.484   9.550
 3934WAT     H225754   1.413   0.586   9.459
 3935WAT      O25755   1.933   0.048   0.726
 3935WAT     H125756   1.994   0.119   0.745
 3935WAT     H225757   1.904   0.065   0.636
 3936WAT      O25758   0.709   3.574   9.515
 3936WAT     H125759   0.638   3.531   9.561
 3936WAT     H225760   0.787   3.553   9.566
 3937WAT      O25761   5.934   5.473   9.578
 3937WAT     H125762   5.999   5.542   9.564
 3937WAT     H225763   5.849   5.516   9.564
 3938WAT      O25764   2.434   1.458   3.726
 3938WAT     H125765   2.415   1.428   3.815
 3938WAT     H225766   2.365   1.421   3.672
 3939WAT      O25767   4.619   2.632   0.176
 3939WAT     H125768   4.645   2.720   0.205
 3939WAT     H225769   4.611   2.581   0.257
 3940WAT      O25770   6.027   4.294   2.964
 3940WAT     H125771   6.084   4.332   3.031
 3940WAT     H225772   6.027   4.358   2.893
 3941WAT      O25773   1.206   5.584  12.243
 3941WAT     H125774   1.129   5.574  12.299
 3941WAT     H225775   1.218   5.497  12.203
 3942WAT      O25776   4.363   4.639  12.463
 3942WAT     H125777   4.399   4.552  12.450
 3942WAT     H225778   4.401   4.692  12.393
 3943WAT      O25779   4.796   5.386  10.459
 3943WAT     H125780   4.815   5.293  10.453
 3943WAT     H225781   4.741   5.395  10.537
 3944WAT      O25782   5.293   2.276   2.288
 3944WAT     H125783   5.228   2.264   2.358
 3944WAT     H225784   5.294   2.370   2.271
 3945WAT      O25785   4.156   0.833  12.373
 3945WAT     H125786   4.122   0.783  12.299
 3945WAT     H225787   4.087   0.896  12.394
 3946WAT      O25788   0.638   5.670   1.211
 3946WAT     H125789   0.680   5.607   1.269
 3946WAT     H225790   0.704   5.738   1.198
 3947WAT      O25791   3.549   3.110   4.887
 3947WAT     H125792   3.637   3.073   4.878
 3947WAT     H225793   3.497   3.038   4.924
 3948WAT      O25794   4.481   1.502  10.881
 3948WAT     H125795   4.483   1.594  10.854
 3948WAT     H225796   4.482   1.504  10.976
 3949WAT      O25797   3.574   2.586   2.830
 3949WAT     H125798   3.575   2.677   2.801
 3949WAT     H225799   3.576   2.590   2.926
 3950WAT      O25800   1.617   4.507   1.818
 3950WAT     H125801   1.700   4.462   1.833
 3950WAT     H225802   1.558   4.439   1.787
 3951WAT      O25803   6.189   0.504   2.363
 3951WAT     H125804   6.235   0.564   2.421
 3951WAT     H225805   6.167   0.557   2.286
 3952WAT      O25806   4.104   4.408   3.330
 3952WAT     H125807   4.181   4.450   3.367
 3952WAT     H225808   4.081   4.463   3.255
 3953WAT      O25809   5.051   3.015  12.250
 3953WAT     H125810   5.019   2.928  12.272
 3953WAT     H225811   5.045   3.020  12.155
 3954WAT      O25812   4.738   0.868  12.396
 3954WAT     H125813   4.767   0.904  12.312
 3954WAT     H225814   4.762   0.775  12.392
 3955WAT      O25815   5.961   1.612   8.337
 3955WAT     H125816   5.991   1.619   8.246
 3955WAT     H225817   5.889   1.550   8.333
 3956WAT      O25818   6.115   4.923  10.833
 3956WAT     H125819   6.081   4.866  10.902
 3956WAT     H225820   6.152   4.863  10.768
 3957WAT      O25821   1.683   2.862   2.293
 3957WAT     H125822   1.743   2.849   2.220
 3957WAT     H225823   1.717   2.939   2.339
 3958WAT      O25824   1.334   2.621   3.486
 3958WAT     H125825   1.395   2.572   3.541
 3958WAT     H225826   1.390   2.680   3.435
 3959WAT      O25827   4.179   0.906  11.067
 3959WAT     H125828   4.148   0.945  10.985
 3959WAT     H225829   4.109   0.923  11.130
 3960WAT      O25830   3.767   3.547   1.384
 3960WAT     H125831   3.703   3.572   1.451
 3960WAT     H225832   3.722   3.482   1.330
 3961WAT      O25833   5.709   5.394   3.785
 3961WAT     H125834   5.638   5.355   3.837
 3961WAT     H225835   5.762   5.319   3.758
 3962WAT      O25836   3.651   2.155   0.769
 3962WAT     H125837   3.736   2.190   0.742
 3962WAT     H225838   3.588   2.221   0.742
 3963WAT      O25839   0.106   4.926   0.304
 3963WAT     H125840   0.169   4.948   0.236
 3963WAT     H225841   0.148   4.955   0.385
 3964WAT      O25842   5.991   2.313   3.527
 3964WAT     H125843   5.902   2.280   3.543
 3964WAT     H225844   5.988   2.405   3.554
 3965WAT      O25845   2.277   2.196   3.750
 3965WAT     H125846   2.273   2.121   3.809
 3965WAT     H225847   2.335   2.258   3.795
 3966WAT      O25848   0.710   3.563   1.912
 3966WAT     H125849   0.669   3.632   1.859
 3966WAT     H225850   0.636   3.510   1.942
 3967WAT      O25851   4.041   3.034  10.091
 3967WAT     H125852   4.120   3.078  10.122
 3967WAT     H225853   4.073   2.966  10.032
 3968WAT      O25854   1.713   3.574   0.587
 3968WAT     H125855   1.713   3.621   0.504
 3968WAT     H225856   1.736   3.640   0.653
 3969WAT      O25857   1.000   3.757   8.117
 3969WAT     H125858   0.917   3.804   8.104
 3969WAT     H225859   1.050   3.813   8.176
 3970WAT      O25860   0.185   2.982   1.757
 3970WAT     H125861   0.208   3.014   1.670
 3970WAT     H225862   0.122   2.911   1.741
 3971WAT      O25863   4.886   3.611  11.992
 3971WAT     H125864   4.966   3.562  12.011
 3971WAT     H225865   4.898   3.643  11.903
 3972WAT      O25866   2.182   1.872   1.294
 3972WAT     H125867   2.152   1.957   1.263
 3972WAT     H225868   2.163   1.872   1.388
 3973WAT      O25869   3.979   2.871   8.747
 3973WAT     H125870   3.992   2.862   8.652
 3973WAT     H225871   3.887   2.894   8.756
 3974WAT      O25872   4.031   4.662   2.183
 3974WAT     H125873   4.057   4.696   2.269
 3974WAT     H225874   3.942   4.630   2.196
 3975WAT      O25875   1.142   4.403  12.440
 3975WAT     H125876   1.182   4.337  12.384
 3975WAT     H225877   1.199   4.407  12.517
 3976WAT      O25878   4.529   5.722   2.927
 3976WAT     H125879   4.596   5.740   2.861
 3976WAT     H225880   4.450   5.762   2.892
 3977WAT      O25881   3.215   5.377  11.045
 3977WAT     H125882   3.125   5.393  11.018
 3977WAT     H225883   3.228   5.435  11.121
 3978WAT      O25884   0.200   5.378   4.059
 3978WAT     H125885   0.126   5.363   4.118
 3978WAT     H225886   0.187   5.317   3.987
 3979WAT      O25887   0.849   3.260   1.383
 3979WAT     H125888   0.835   3.261   1.478
 3979WAT     H225889   0.884   3.173   1.365
 3980WAT      O25890   5.157   1.384   4.256
 3980WAT     H125891   5.197   1.303   4.226
 3980WAT     H225892   5.096   1.357   4.324
 3981WAT      O25893   5.997   0.263   8.209
 3981WAT     H125894   5.984   0.264   8.114
 3981WAT     H225895   5.919   0.222   8.244
 3982WAT      O25896   0.919   0.726  10.085
 3982WAT     H125897   0.950   0.708  10.174
 3982WAT     H225898   0.998   0.753  10.037
 3983WAT      O25899   4.807   2.153  12.353
 3983WAT     H125900   4.818   2.214  12.280
 3983WAT     H225901   4.733   2.188  12.403
 3984WAT      O25902   3.336   0.327  10.765
 3984WAT     H125903   3.371   0.415  10.778
 3984WAT     H225904   3.296   0.304  10.849
 3985WAT      O25905   3.766   1.623   1.087
 3985WAT     H125906   3.727   1.557   1.145
 3985WAT     H225907   3.823   1.574   1.029
 3986WAT      O25908   5.746   2.402  12.509
 3986WAT     H125909   5.764   2.433  12.420
 3986WAT     H225910   5.731   2.308  12.498
 3987WAT      O25911   4.508   3.175   2.778
 3987WAT     H125912   4.478   3.261   2.807
 3987WAT     H225913   4.450   3.113   2.821
 3988WAT      O25914   3.840   0.823  11.746
 3988WAT     H125915   3.796   0.773  11.676
 3988WAT     H225916   3.932   0.800  11.737
 3989WAT      O25917   2.208   3.174   3.081
 3989WAT     H125918   2.166   3.246   3.130
 3989WAT     H225919   2.217   3.104   3.146
 3990WAT      O25920   5.628   3.546   2.727
 3990WAT     H125921   5.631   3.642   2.731
 3990WAT     H225922   5.538   3.526   2.702
 3991WAT      O25923   4.783   4.654   9.919
 3991WAT     H125924   4.733   4.574   9.940
 3991WAT     H225925   4.726   4.725   9.947
 3992WAT      O25926   1.901   1.324   2.024
 3992WAT     H125927   1.812   1.313   1.990
 3992WAT     H225928   1.890   1.335   2.119
 3993WAT      O25929   2.726   4.234  12.340
 3993WAT     H125930   2.778   4.200  12.267
 3993WAT     H225931   2.741   4.173  12.411
 3994WAT      O25932   0.298   4.203   9.295
 3994WAT     H125933   0.344   4.125   9.265
 3994WAT     H225934   0.223   4.211   9.235
 3995WAT      O25935   3.066   1.238  12.273
 3995WAT     H125936   3.000   1.191  12.324
 3995WAT     H225937   3.138   1.253  12.335
 3996WAT      O25938   5.858   3.643   1.232
 3996WAT     H125939   5.852   3.583   1.306
 3996WAT     H225940   5.810   3.599   1.162
 3997WAT      O25941   0.820   5.662   4.083
 3997WAT     H125942   0.771   5.716   4.020
 3997WAT     H225943   0.798   5.572   4.059
 3998WAT      O25944   5.996   1.212   2.181
 3998WAT     H125945   6.056   1.158   2.129
 3998WAT     H225946   5.984   1.291   2.128
 3999WAT      O25947   4.305   2.391   4.201
 3999WAT     H125948   4.274   2.351   4.281
 3999WAT     H225949   4.246   2.358   4.133
 4000WAT      O25950   4.810   4.632   4.397
 4000WAT     H125951   4.901   4.662   4.395
 4000WAT     H225952   4.770   4.673   4.320
 4001WAT      O25953   0.860   1.558   4.994
 4001WAT     H125954   0.823   1.471   4.981
 4001WAT     H225955   0.921   1.547   5.067
 4002WAT      O25956   3.826   2.827   3.125
 4002WAT     H125957   3.881   2.877   3.065
 4002WAT     H225958   3.812   2.886   3.199
 4003WAT      O25959   6.049   3.333   3.890
 4003WAT     H125960   5.987   3.271   3.852
 4003WAT     H225961   6.132   3.286   3.891
 4004WAT      O25962   4.765   4.057   3.639
 4004WAT     H125963   4.804   3.969   3.641
 4004WAT     H225964   4.823   4.107   3.582
 4005WAT      O25965   5.692   1.843   1.030
 4005WAT     H125966   5.752   1.784   0.985
 4005WAT     H225967   5.712   1.930   0.994
 4006WAT      O25968   1.168   1.690   1.617
 4006WAT     H125969   1.114   1.627   1.568
 4006WAT     H225970   1.149   1.671   1.709
 4007WAT      O25971   4.218   4.273   3.075
 4007WAT     H125972   4.148   4.242   3.132
 4007WAT     H225973   4.288   4.299   3.134
 4008WAT      O25974   0.620   1.758   9.641
 4008WAT     H125975   0.633   1.758   9.546
 4008WAT     H225976   0.667   1.835   9.671
 4009WAT      O25977   2.784   5.611   9.316
 4009WAT     H125978   2.859   5.647   9.269
 4009WAT     H225979   2.821   5.542   9.371
 4010WAT      O25980   2.488   2.451  11.446
 4010WAT     H125981   2.425   2.393  11.487
 4010WAT     H225982   2.532   2.495  11.519
 4011WAT      O25983   5.523   0.544  10.336
 4011WAT     H125984   5.610   0.535  10.299
 4011WAT     H225985   5.496   0.633  10.315
 4012WAT      O25986   5.186   2.193   1.909
 4012WAT     H125987   5.125   2.266   1.907
 4012WAT     H225988   5.246   2.209   1.837
 4013WAT      O25989   1.248   4.125   9.756
 4013WAT     H125990   1.195   4.203   9.772
 4013WAT     H225991   1.198   4.074   9.693
 4014WAT      O25992   5.209   6.088  11.000
 4014WAT     H125993   5.274   6.134  10.947
 4014WAT     H225994   5.126   6.130  10.977
 4015WAT      O25995   1.123   2.031  11.314
 4015WAT     H125996   1.098   2.046  11.223
 4015WAT     H225997   1.217   2.012  11.310
 4016WAT      O25998   0.847   4.214   8.564
 4016WAT     H125999   0.922   4.235   8.509
 4016WAT     H226000   0.886   4.180   8.645
 4017WAT      O26001   4.197   4.121  12.117
 4017WAT     H126002   4.189   4.215  12.131
 4017WAT     H226003   4.246   4.089  12.193
 4018WAT      O26004   3.830   2.601   0.143
 4018WAT     H126005   3.795   2.528   0.092
 4018WAT     H226006   3.921   2.576   0.161
 4019WAT      O26007   3.828   5.171   9.223
 4019WAT     H126008   3.901   5.204   9.170
 4019WAT     H226009   3.871   5.129   9.297
 4020WAT      O26010   6.185   1.599   2.216
 4020WAT     H126011   6.193   1.676   2.274
 4020WAT     H226012   6.240   1.532   2.257
 4021WAT      O26013   6.259   2.252   3.569
 4021WAT     H126014   6.164   2.262   3.568
 4021WAT     H226015   6.281   2.230   3.478
 4022WAT      O26016   5.528   1.414   8.502
 4022WAT     H126017   5.533   1.508   8.520
 4022WAT     H226018   5.458   1.382   8.560
 4023WAT      O26019   4.975   0.866   3.830
 4023WAT     H126020   4.978   0.950   3.876
 4023WAT     H226021   4.944   0.804   3.896
 4024WAT      O26022   6.102   5.468   8.713
 4024WAT     H126023   6.063   5.390   8.672
 4024WAT     H226024   6.055   5.541   8.673
 4025WAT      O26025   5.437   2.660   4.656
 4025WAT     H126026   5.391   2.643   4.574
 4025WAT     H226027   5.427   2.580   4.706
 4026WAT      O26028   5.689   0.260   9.499
 4026WAT     H126029   5.658   0.182   9.544
 4026WAT     H226030   5.696   0.234   9.407
 4027WAT      O26031   3.806   2.868   8.961
 4027WAT     H126032   3.875   2.804   8.980
 4027WAT     H226033   3.852   2.952   8.958
 4028WAT      O26034   5.713   2.577   0.035
 4028WAT     H126035   5.718   2.504  -0.027
 4028WAT     H226036   5.624   2.570   0.072
 4029WAT      O26037   5.158   0.427  11.952
 4029WAT     H126038   5.131   0.338  11.930
 4029WAT     H226039   5.224   0.450  11.887
 4030WAT      O26040   4.654   0.097  11.952
 4030WAT     H126041   4.671   0.100  11.858
 4030WAT     H226042   4.558   0.095  11.959
 4031WAT      O26043   0.591   2.082   1.757
 4031WAT     H126044   0.672   2.075   1.807
 4031WAT     H226045   0.522   2.064   1.821
 4032WAT      O26046   4.384   0.851   8.205
 4032WAT     H126047   4.461   0.797   8.222
 4032WAT     H226048   4.324   0.791   8.160
 4033WAT      O26049   6.094   3.821   8.756
 4033WAT     H126050   6.002   3.843   8.773
 4033WAT     H226051   6.090   3.738   8.707
 4034WAT      O26052   4.779   0.863   8.402
 4034WAT     H126053   4.788   0.929   8.471
 4034WAT     H226054   4.768   0.914   8.321
 4035WAT      O26055   2.566   5.857  11.435
 4035WAT     H126056   2.642   5.913  11.423
 4035WAT     H226057   2.510   5.905  11.497
 4036WAT      O26058   5.347   1.722   9.564
 4036WAT     H126059   5.372   1.630   9.552
 4036WAT     H226060   5.335   1.756   9.476
 4037WAT      O26061   2.095   3.130   2.196
 4037WAT     H126062   2.015   3.183   2.188
 4037WAT     H226063   2.093   3.096   2.285
 4038WAT      O26064   3.660   3.163  11.886
 4038WAT     H126065   3.604   3.118  11.824
 4038WAT     H226066   3.661   3.254  11.857
 4039WAT      O26067   1.972   1.954   4.141
 4039WAT     H126068   1.973   2.014   4.216
 4039WAT     H226069   2.049   1.899   4.152
 4040WAT      O26070   4.700   1.496   9.058
 4040WAT     H126071   4.660   1.581   9.042
 4040WAT     H226072   4.756   1.509   9.134
 4041WAT      O26073   4.101   4.259   8.410
 4041WAT     H126074   4.120   4.280   8.319
 4041WAT     H226075   4.131   4.335   8.459
 4042WAT      O26076   0.357   4.261   8.610
 4042WAT     H126077   0.374   4.260   8.515
 4042WAT     H226078   0.366   4.169   8.636
 4043WAT      O26079   2.099   2.128  10.585
 4043WAT     H126080   2.185   2.122  10.626
 4043WAT     H226081   2.098   2.057  10.521
 4044WAT      O26082   5.030   1.810   9.503
 4044WAT     H126083   4.989   1.896   9.502
 4044WAT     H226084   5.057   1.798   9.594
 4045WAT      O26085   2.103   4.051   2.665
 4045WAT     H126086   2.149   4.083   2.742
 4045WAT     H226087   2.013   4.081   2.676
 4046WAT      O26088   1.170   0.812   8.733
 4046WAT     H126089   1.223   0.880   8.776
 4046WAT     H226090   1.229   0.775   8.667
 4047WAT      O26091   4.310   0.521  11.232
 4047WAT     H126092   4.279   0.440  11.190
 4047WAT     H226093   4.402   0.504  11.251
 4048WAT      O26094   5.476   0.294  10.142
 4048WAT     H126095   5.423   0.237  10.197
 4048WAT     H226096   5.476   0.378  10.187
 4049WAT      O26097   5.760   5.821  11.548
 4049WAT     H126098   5.820   5.753  11.516
 4049WAT     H226099   5.802   5.854  11.627
 4050WAT      O26100   0.084   3.253  10.101
 4050WAT     H126101   0.094   3.175  10.155
 4050WAT     H226102   0.020   3.307  10.148
 4051WAT      O26103   0.255   1.437   1.547
 4051WAT     H126104   0.231   1.494   1.475
 4051WAT     H226105   0.232   1.486   1.626
 4052WAT      O26106   5.657   0.669   0.813
 4052WAT     H126107   5.606   0.604   0.764
 4052WAT     H226108   5.694   0.726   0.746
 4053WAT      O26109   2.308   5.622  11.524
 4053WAT     H126110   2.347   5.634  11.610
 4053WAT     H226111   2.292   5.710  11.491
 4054WAT      O26112   4.701   4.858   2.339
 4054WAT     H126113   4.645   4.782   2.353
 4054WAT     H226114   4.663   4.902   2.263
 4055WAT      O26115   1.197   4.017  12.598
 4055WAT     H126116   1.256   3.952  12.636
 4055WAT     H226117   1.245   4.052  12.523
 4056WAT      O26118   5.922   2.682  10.816
 4056WAT     H126119   5.928   2.774  10.844
 4056WAT     H226120   5.838   2.652  10.849
 4057WAT      O26121   2.717   2.599   4.653
 4057WAT     H126122   2.691   2.690   4.641
 4057WAT     H226123   2.694   2.578   4.743
 4058WAT      O26124   4.825   4.416   9.186
 4058WAT     H126125   4.886   4.472   9.138
 4058WAT     H226126   4.789   4.358   9.120
 4059WAT      O26127   2.732   2.843   8.544
 4059WAT     H126128   2.784   2.763   8.539
 4059WAT     H226129   2.775   2.896   8.611
 4060WAT      O26130   5.776   3.924   7.954
 4060WAT     H126131   5.788   3.991   8.021
 4060WAT     H226132   5.705   3.868   7.988
 4061WAT      O26133   2.438   4.228   0.269
 4061WAT     H126134   2.462   4.311   0.309
 4061WAT     H226135   2.383   4.252   0.195
 4062WAT      O26136   1.797   2.751  11.725
 4062WAT     H126137   1.704   2.731  11.731
 4062WAT     H226138   1.801   2.831  11.672
 4063WAT      O26139   3.519   3.747  11.550
 4063WAT     H126140   3.560   3.733  11.465
 4063WAT     H226141   3.483   3.662  11.574
 4064WAT      O26142   1.580   1.262  11.822
 4064WAT     H126143   1.604   1.188  11.767
 4064WAT     H226144   1.647   1.264  11.891
 4065WAT      O26145   6.064   4.963   0.402
 4065WAT     H126146   6.153   4.936   0.382
 4065WAT     H226147   6.045   4.922   0.487
 4066WAT      O26148   3.879   4.964   2.229
 4066WAT     H126149   3.916   4.893   2.177
 4066WAT     H226150   3.802   4.992   2.181
 4067WAT      O26151   2.122   5.332   3.000
 4067WAT     H126152   2.129   5.373   3.086
 4067WAT     H226153   2.130   5.404   2.938
 4068WAT      O26154   5.402   6.098   7.536
 4068WAT     H126155   5.424   6.191   7.532
 4068WAT     H226156   5.417   6.074   7.628
 4069WAT      O26157   2.382   3.351   4.686
 4069WAT     H126158   2.369   3.256   4.681
 4069WAT     H226159   2.435   3.371   4.609
 4070WAT      O26160   3.671   4.607   3.059
 4070WAT     H126161   3.738   4.675   3.048
 4070WAT     H226162   3.602   4.631   2.997
 4071WAT      O26163   6.002   4.140   8.452
 4071WAT     H126164   5.919   4.159   8.406
 4071WAT     H226165   6.070   4.167   8.390
 4072WAT      O26166   0.091   4.711   9.536
 4072WAT     H126167   0.169   4.742   9.489
 4072WAT     H226168   0.028   4.691   9.467
 4073WAT      O26169   5.057   0.706   9.617
 4073WAT     H126170   5.098   0.792   9.628
 4073WAT     H226171   5.128   0.644   9.635
 4074WAT      O26172   0.137   3.326   3.988
 4074WAT     H126173   0.106   3.238   4.009
 4074WAT     H226174   0.125   3.334   3.893
 4075WAT      O26175   3.177   2.867  11.363
 4075WAT     H126176   3.196   2.893  11.273
 4075WAT     H226177   3.209   2.777  11.369
 4076WAT      O26178   5.294   0.707   0.562
 4076WAT     H126179   5.269   0.762   0.488
 4076WAT     H226180   5.233   0.732   0.632
 4077WAT      O26181   3.987   2.914  10.437
 4077WAT     H126182   4.021   2.879  10.355
 4077WAT     H226183   4.000   3.009  10.430
 4078WAT      O26184   4.272   4.870   2.858
 4078WAT     H126185   4.217   4.798   2.825
 4078WAT     H226186   4.211   4.927   2.905
 4079WAT      O26187   5.342   0.490  10.554
 4079WAT     H126188   5.400   0.493  10.478
 4079WAT     H226189   5.286   0.567  10.544
 4080WAT      O26190   3.066   0.058   2.692
 4080WAT     H126191   3.059  -0.018   2.749
 4080WAT     H226192   3.101   0.024   2.610
 4081WAT      O26193   6.195   2.146   2.651
 4081WAT     H126194   6.253   2.212   2.614
 4081WAT     H226195   6.190   2.168   2.744
 4082WAT      O26196   3.916   3.909   0.567
 4082WAT     H126197   4.006   3.915   0.534
 4082WAT     H226198   3.921   3.950   0.654
 4083WAT      O26199   1.847   2.841  12.378
 4083WAT     H126200   1.767   2.839  12.326
 4083WAT     H226201   1.916   2.861  12.315
 4084WAT      O26202   2.082   5.237   9.613
 4084WAT     H126203   2.002   5.218   9.662
 4084WAT     H226204   2.092   5.162   9.554
 4085WAT      O26205   2.244   3.332   2.830
 4085WAT     H126206   2.334   3.360   2.850
 4085WAT     H226207   2.208   3.307   2.915
 4086WAT      O26208   1.435   4.788   9.153
 4086WAT     H126209   1.503   4.851   9.176
 4086WAT     H226210   1.470   4.704   9.181
 4087WAT      O26211   3.454   4.655   9.883
 4087WAT     H126212   3.454   4.680   9.790
 4087WAT     H226213   3.540   4.618   9.898
 4088WAT      O26214   2.223   3.385   2.087
 4088WAT     H126215   2.198   3.313   2.144
 4088WAT     H226216   2.211   3.464   2.140
 4089WAT      O26217   4.870   4.290   3.470
 4089WAT     H126218   4.942   4.249   3.422
 4089WAT     H226219   4.792   4.269   3.418
 4090WAT      O26220   4.175   0.279   1.392
 4090WAT     H126221   4.243   0.293   1.326
 4090WAT     H226222   4.118   0.212   1.354
 4091WAT      O26223   6.055   3.906   2.019
 4091WAT     H126224   6.146   3.935   2.010
 4091WAT     H226225   6.061   3.817   2.052
 4092WAT      O26226   1.506   2.200  12.085
 4092WAT     H126227   1.586   2.209  12.135
 4092WAT     H226228   1.485   2.288  12.055
 4093WAT      O26229   2.326   1.515  10.071
 4093WAT     H126230   2.343   1.421  10.075
 4093WAT     H226231   2.405   1.552  10.030
 4094WAT      O26232   0.972   4.434   9.359
 4094WAT     H126233   0.895   4.484   9.386
 4094WAT     H226234   0.942   4.378   9.287
 4095WAT      O26235   5.609   3.388  12.467
 4095WAT     H126236   5.533   3.347  12.508
 4095WAT     H226237   5.587   3.481  12.465
 4096WAT      O26238   2.175   3.543  10.511
 4096WAT     H126239   2.213   3.568  10.596
 4096WAT     H226240   2.085   3.574  10.515
 4097WAT      O26241   2.195   4.271   4.794
 4097WAT     H126242   2.252   4.223   4.855
 4097WAT     H226243   2.118   4.216   4.785
 4098WAT      O26244   3.553   1.154   2.444
 4098WAT     H126245   3.523   1.067   2.417
 4098WAT     H226246   3.647   1.145   2.455
 4099WAT      O26247   1.294   4.396  -0.015
 4099WAT     H126248   1.223   4.445   0.026
 4099WAT     H226249   1.348   4.365   0.058
 4100WAT      O26250   5.360   0.528  10.993
 4100WAT     H126251   5.452   0.554  11.001
 4100WAT     H226252   5.311   0.599  11.034
 4101WAT      O26253   3.260   2.787   1.762
 4101WAT     H126254   3.303   2.732   1.697
 4101WAT     H226255   3.167   2.770   1.749
 4102WAT      O26256   4.638   1.608   0.352
 4102WAT     H126257   4.559   1.659   0.372
 4102WAT     H226258   4.688   1.663   0.292
 4103WAT      O26259   3.463   2.104   2.970
 4103WAT     H126260   3.420   2.132   3.051
 4103WAT     H226261   3.520   2.176   2.946
 4104WAT      O26262   6.236   2.628   3.468
 4104WAT     H126263   6.147   2.599   3.489
 4104WAT     H226264   6.229   2.723   3.462
 4105WAT      O26265   4.539   4.579   0.991
 4105WAT     H126266   4.453   4.620   0.982
 4105WAT     H226267   4.588   4.610   0.915
 4106WAT      O26268   4.651   1.433   1.245
 4106WAT     H126269   4.700   1.503   1.289
 4106WAT     H226270   4.574   1.418   1.300
 4107WAT      O26271   2.928   3.148   3.179
 4107WAT     H126272   2.902   3.230   3.137
 4107WAT     H226273   2.888   3.079   3.126
 4108WAT      O26274   1.224   3.042  12.271
 4108WAT     H126275   1.204   2.948  12.269
 4108WAT     H226276   1.298   3.052  12.211
 4109WAT      O26277   1.084   3.189   1.123
 4109WAT     H126278   1.100   3.174   1.216
 4109WAT     H226279   0.989   3.198   1.116
 4110WAT      O26280   3.611   2.002   2.413
 4110WAT     H126281   3.623   2.079   2.469
 4110WAT     H226282   3.679   2.011   2.346
 4111WAT      O26283   4.526   1.726   2.181
 4111WAT     H126284   4.492   1.688   2.262
 4111WAT     H226285   4.469   1.691   2.113
 4112WAT      O26286   3.544   3.296   4.683
 4112WAT     H126287   3.631   3.310   4.647
 4112WAT     H226288   3.557   3.236   4.756
 4113WAT      O26289   5.342   4.558  10.960
 4113WAT     H126290   5.384   4.643  10.975
 4113WAT     H226291   5.272   4.554  11.025
 4114WAT      O26292   3.313   2.147  12.608
 4114WAT     H126293   3.242   2.084  12.593
 4114WAT     H226294   3.392   2.093  12.615
 4115WAT      O26295   1.384   3.058   2.195
 4115WAT     H126296   1.452   3.115   2.160
 4115WAT     H226297   1.302   3.098   2.167
 4116WAT      O26298   1.273   6.209   4.363
 4116WAT     H126299   1.316   6.249   4.439
 4116WAT     H226300   1.227   6.133   4.398
 4117WAT      O26301   2.065   1.596   0.347
 4117WAT     H126302   2.013   1.664   0.305
 4117WAT     H226303   2.039   1.599   0.439
 4118WAT      O26304   2.967   6.206   1.108
 4118WAT     H126305   2.925   6.227   1.024
 4118WAT     H226306   3.059   6.192   1.085
 4119WAT      O26307   4.224   5.448  11.627
 4119WAT     H126308   4.133   5.458  11.653
 4119WAT     H226309   4.241   5.524  11.571
 4120WAT      O26310   2.915   0.267   7.647
 4120WAT     H126311   2.898   0.253   7.740
 4120WAT     H226312   2.958   0.352   7.642
 4121WAT      O26313   3.345   2.609   9.378
 4121WAT     H126314   3.309   2.634   9.463
 4121WAT     H226315   3.349   2.514   9.380
 4122WAT      O26316   1.419   0.848  10.559
 4122WAT     H126317   1.330   0.861  10.591
 4122WAT     H226318   1.408   0.812  10.471
 4123WAT      O26319   2.400   0.423   0.205
 4123WAT     H126320   2.335   0.364   0.243
 4123WAT     H226321   2.392   0.410   0.110
 4124WAT      O26322   1.667   0.836   2.154
 4124WAT     H126323   1.610   0.786   2.096
 4124WAT     H226324   1.747   0.850   2.102
 4125WAT      O26325   1.270   4.556  10.142
 4125WAT     H126326   1.336   4.598  10.088
 4125WAT     H226327   1.216   4.628  10.175
 4126WAT      O26328   3.902   5.096   2.474
 4126WAT     H126329   3.817   5.120   2.509
 4126WAT     H226330   3.883   5.056   2.390
 4127WAT      O26331   1.049   2.005   3.753
 4127WAT     H126332   1.026   2.092   3.787
 4127WAT     H226333   1.045   1.948   3.830
 4128WAT      O26334   5.300   2.827   3.132
 4128WAT     H126335   5.348   2.759   3.085
 4128WAT     H226336   5.328   2.909   3.093
 4129WAT      O26337   1.706   2.117   3.382
 4129WAT     H126338   1.730   2.137   3.472
 4129WAT     H226339   1.612   2.099   3.385
 4130WAT      O26340   1.122   3.740  12.378
 4130WAT     H126341   1.116   3.709  12.288
 4130WAT     H226342   1.137   3.661  12.430
 4131WAT      O26343   6.184   4.509   8.918
 4131WAT     H126344   6.212   4.541   9.004
 4131WAT     H226345   6.251   4.446   8.893
 4132WAT      O26346   6.161   2.914   2.364
 4132WAT     H126347   6.174   2.988   2.423
 4132WAT     H226348   6.092   2.862   2.405
 4133WAT      O26349   2.567   0.221  11.531
 4133WAT     H126350   2.558   0.175  11.615
 4133WAT     H226351   2.520   0.304  11.544
 4134WAT      O26352   2.684   4.168  11.040
 4134WAT     H126353   2.734   4.090  11.063
 4134WAT     H226354   2.697   4.227  11.115
 4135WAT      O26355   2.809   5.897   2.185
 4135WAT     H126356   2.854   5.949   2.118
 4135WAT     H226357   2.736   5.856   2.139
 4136WAT      O26358   4.526   2.489   9.991
 4136WAT     H126359   4.528   2.516  10.082
 4136WAT     H226360   4.568   2.403   9.990
 4137WAT      O26361   2.385   1.015   0.930
 4137WAT     H126362   2.451   1.027   0.861
 4137WAT     H226363   2.330   1.093   0.923
 4138WAT      O26364   2.592   3.567   8.687
 4138WAT     H126365   2.571   3.525   8.605
 4138WAT     H226366   2.560   3.508   8.755
 4139WAT      O26367   0.931   3.116   8.033
 4139WAT     H126368   0.898   3.144   7.947
 4139WAT     H226369   0.992   3.045   8.013
 4140WAT      O26370   2.530   4.839   3.963
 4140WAT     H126371   2.508   4.932   3.976
 4140WAT     H226372   2.619   4.831   3.997
 4141WAT      O26373   4.688   3.581  11.742
 4141WAT     H126374   4.656   3.544  11.660
 4141WAT     H226375   4.614   3.573  11.802
 4142WAT      O26376   1.563   2.732  12.454
 4142WAT     H126377   1.558   2.766  12.365
 4142WAT     H226378   1.593   2.806  12.507
 4143WAT      O26379   5.960   5.716   1.404
 4143WAT     H126380   5.989   5.645   1.347
 4143WAT     H226381   5.865   5.707   1.408
 4144WAT      O26382   1.748   1.655   2.704
 4144WAT     H126383   1.839   1.683   2.709
 4144WAT     H226384   1.708   1.714   2.640
 4145WAT      O26385   4.458   0.085   2.855
 4145WAT     H126386   4.429   0.170   2.821
 4145WAT     H226387   4.382   0.029   2.847
 4146WAT      O26388   4.888   5.685   8.656
 4146WAT     H126389   4.896   5.770   8.614
 4146WAT     H226390   4.972   5.642   8.639
 4147WAT      O26391   4.130   6.206   8.891
 4147WAT     H126392   4.198   6.246   8.837
 4147WAT     H226393   4.170   6.196   8.977
 4148WAT      O26394   0.132   0.307   2.379
 4148WAT     H126395   0.208   0.365   2.376
 4148WAT     H226396   0.057   0.364   2.361
 4149WAT      O26397   3.242   2.895  10.685
 4149WAT     H126398   3.277   2.899  10.596
 4149WAT     H226399   3.197   2.979  10.698
 4150WAT      O26400   5.593   3.345   2.943
 4150WAT     H126401   5.521   3.376   2.888
 4150WAT     H226402   5.645   3.424   2.961
 4151WAT      O26403   5.086   0.081   0.229
 4151WAT     H126404   5.085   0.006   0.170
 4151WAT     H226405   5.070   0.157   0.173
 4152WAT      O26406   0.448   4.451   9.908
 4152WAT     H126407   0.498   4.531   9.923
 4152WAT     H226408   0.508   4.380   9.930
 4153WAT      O26409   2.330   1.144   3.490
 4153WAT     H126410   2.369   1.193   3.417
 4153WAT     H226411   2.383   1.064   3.496
 4154WAT      O26412   5.049   5.141  10.600
 4154WAT     H126413   5.123   5.187  10.560
 4154WAT     H226414   5.086   5.058  10.631
 4155WAT      O26415   1.937   4.161  10.821
 4155WAT     H126416   1.877   4.236  10.822
 4155WAT     H226417   1.898   4.101  10.758
 4156WAT      O26418   3.223   4.289   2.114
 4156WAT     H126419   3.180   4.210   2.081
 4156WAT     H226420   3.156   4.357   2.108
 4157WAT      O26421   2.018   1.930  12.363
 4157WAT     H126422   2.101   1.961  12.326
 4157WAT     H226423   2.024   1.951  12.456
 4158WAT      O26424   1.273   4.969   3.304
 4158WAT     H126425   1.296   4.880   3.279
 4158WAT     H226426   1.306   5.024   3.233
 4159WAT      O26427   4.606   1.177   8.380
 4159WAT     H126428   4.655   1.254   8.409
 4159WAT     H226429   4.556   1.149   8.456
 4160WAT      O26430   1.706   1.534  12.495
 4160WAT     H126431   1.693   1.561  12.404
 4160WAT     H226432   1.704   1.616  12.544
 4161WAT      O26433   3.015   5.810   9.840
 4161WAT     H126434   3.017   5.726   9.796
 4161WAT     H226435   2.985   5.791   9.929
 4162WAT      O26436   1.958   5.420  12.640
 4162WAT     H126437   2.047   5.449  12.620
 4162WAT     H226438   1.944   5.445  12.732
 4163WAT      O26439   1.843   2.529  12.371
 4163WAT     H126440   1.777   2.501  12.434
 4163WAT     H226441   1.900   2.589  12.420
 4164WAT      O26442   3.416   6.196   4.161
 4164WAT     H126443   3.385   6.287   4.157
 4164WAT     H226444   3.361   6.155   4.228
 4165WAT      O26445   4.133   1.284  12.638
 4165WAT     H126446   4.100   1.213  12.693
 4165WAT     H226447   4.125   1.251  12.548
 4166WAT      O26448   0.791   2.622  12.448
 4166WAT     H126449   0.880   2.618  12.415
 4166WAT     H226450   0.743   2.556  12.397
 4167WAT      O26451   4.402   4.725   8.235
 4167WAT     H126452   4.328   4.742   8.294
 4167WAT     H226453   4.368   4.743   8.148
 4168WAT      O26454   0.392   4.459   9.612
 4168WAT     H126455   0.352   4.375   9.632
 4168WAT     H226456   0.482   4.450   9.645
 4169WAT      O26457   1.175   0.773   3.601
 4169WAT     H126458   1.087   0.780   3.637
 4169WAT     H226459   1.177   0.838   3.531
 4170WAT      O26460   4.747   3.870   0.509
 4170WAT     H126461   4.692   3.834   0.579
 4170WAT     H226462   4.815   3.804   0.496
 4171WAT      O26463   0.812   3.739   1.515
 4171WAT     H126464   0.816   3.769   1.424
 4171WAT     H226465   0.764   3.657   1.511
 4172WAT      O26466   1.598   3.339   9.315
 4172WAT     H126467   1.662   3.281   9.357
 4172WAT     H226468   1.521   3.334   9.372
 4173WAT      O26469   0.380   5.924   1.837
 4173WAT     H126470   0.349   5.948   1.925
 4173WAT     H226471   0.301   5.916   1.785
 4174WAT      O26472   4.466   3.644   7.785
 4174WAT     H126473   4.536   3.708   7.771
 4174WAT     H226474   4.499   3.587   7.854
 4175WAT      O26475   0.125   3.014  10.563
 4175WAT     H126476   0.183   3.089  10.571
 4175WAT     H226477   0.155   2.953  10.631
 4176WAT      O26478   1.105   0.197   8.684
 4176WAT     H126479   1.037   0.150   8.636
 4176WAT     H226480   1.159   0.129   8.723
 4177WAT      O26481   0.249   1.474  10.156
 4177WAT     H126482   0.304   1.547  10.129
 4177WAT     H226483   0.197   1.508  10.229
 4178WAT      O26484   1.294   5.994   1.708
 4178WAT     H126485   1.338   5.944   1.776
 4178WAT     H226486   1.285   6.082   1.744
 4179WAT      O26487   2.336   1.387   3.947
 4179WAT     H126488   2.264   1.451   3.948
 4179WAT     H226489   2.384   1.404   4.028
 4180WAT      O26490   1.501   5.150   2.085
 4180WAT     H126491   1.406   5.160   2.084
 4180WAT     H226492   1.517   5.077   2.145
 4181WAT      O26493   2.709   5.505   1.127
 4181WAT     H126494   2.779   5.502   1.062
 4181WAT     H226495   2.629   5.485   1.078
 4182WAT      O26496   2.071   1.822   3.274
 4182WAT     H126497   2.065   1.917   3.268
 4182WAT     H226498   2.139   1.806   3.340
 4183WAT      O26499   1.811   4.502  10.566
 4183WAT     H126500   1.773   4.590  10.570
 4183WAT     H226501   1.783   4.460  10.648
 4184WAT      O26502   3.325   3.005   3.999
 4184WAT     H126503   3.413   3.035   3.976
 4184WAT     H226504   3.334   2.964   4.084
 4185WAT      O26505   3.525   5.837   8.528
 4185WAT     H126506   3.514   5.914   8.584
 4185WAT     H226507   3.452   5.842   8.467
 4186WAT      O26508   2.716   5.251   1.749
 4186WAT     H126509   2.731   5.247   1.844
 4186WAT     H226510   2.641   5.310   1.740
 4187WAT      O26511   3.062   0.850  11.883
 4187WAT     H126512   3.021   0.840  11.969
 4187WAT     H226513   2.999   0.812  11.822
 4188WAT      O26514   5.794   0.763  10.192
 4188WAT     H126515   5.798   0.766  10.287
 4188WAT     H226516   5.880   0.731  10.165
 4189WAT      O26517   6.053   2.125   4.690
 4189WAT     H126518   6.046   2.214   4.655
 4189WAT     H226519   6.004   2.071   4.629
 4190WAT      O26520   3.223   0.282  12.492
 4190WAT     H126521   3.293   0.308  12.552
 4190WAT     H226522   3.160   0.354  12.498
 4191WAT      O26523   4.714   4.613  12.500
 4191WAT     H126524   4.621   4.626  12.483
 4191WAT     H226525   4.745   4.563  12.424
 4192WAT      O26526   4.631   4.421   9.962
 4192WAT     H126527   4.545   4.432   9.921
 4192WAT     H226528   4.616   4.436  10.055
 4193WAT      O26529   5.290   5.195   0.871
 4193WAT     H126530   5.280   5.280   0.914
 4193WAT     H226531   5.373   5.201   0.824
 4194WAT      O26532   5.460   4.307   2.798
 4194WAT     H126533   5.499   4.225   2.829
 4194WAT     H226534   5.384   4.279   2.747
 4195WAT      O26535   0.673   2.815  11.116
 4195WAT     H126536   0.622   2.763  11.178
 4195WAT     H226537   0.707   2.887  11.168
 4196WAT      O26538   1.242   2.624  10.137
 4196WAT     H126539   1.318   2.584  10.181
 4196WAT     H226540   1.270   2.634  10.046
 4197WAT      O26541   2.311   3.093  12.405
 4197WAT     H126542   2.318   3.136  12.491
 4197WAT     H226543   2.395   3.111  12.363
 4198WAT      O26544   4.649   6.216  10.202
 4198WAT     H126545   4.672   6.200  10.111
 4198WAT     H226546   4.602   6.137  10.229
 4199WAT      O26547   2.486   2.344   3.902
 4199WAT     H126548   2.481   2.355   3.997
 4199WAT     H226549   2.558   2.283   3.889
 4200WAT      O26550   2.958   4.427  11.154
 4200WAT     H126551   2.888   4.365  11.172
 4200WAT     H226552   2.923   4.511  11.184
 4201WAT      O26553   0.441   0.473   9.984
 4201WAT     H126554   0.453   0.546  10.045
 4201WAT     H226555   0.528   0.458   9.947
 4202WAT      O26556   4.650   4.214  11.538
 4202WAT     H126557   4.610   4.237  11.622
 4202WAT     H226558   4.714   4.284  11.523
 4203WAT      O26559   4.353   3.867   8.109
 4203WAT     H126560   4.439   3.825   8.104
 4203WAT     H226561   4.294   3.804   8.068
 4204WAT      O26562   4.101   2.683   9.159
 4204WAT     H126563   4.142   2.612   9.109
 4204WAT     H226564   4.009   2.657   9.166
 4205WAT      O26565   3.034   0.710   1.431
 4205WAT     H126566   3.056   0.648   1.362
 4205WAT     H226567   3.118   0.733   1.471
 4206WAT      O26568   3.512   5.103   1.108
 4206WAT     H126569   3.532   5.187   1.149
 4206WAT     H226570   3.565   5.101   1.029
 4207WAT      O26571   0.272   5.152   4.465
 4207WAT     H126572   0.236   5.092   4.530
 4207WAT     H226573   0.363   5.124   4.453
 4208WAT      O26574   3.248   5.741  12.011
 4208WAT     H126575   3.167   5.690  12.010
 4208WAT     H226576   3.304   5.695  12.074
 4209WAT      O26577   2.023   5.000  10.855
 4209WAT     H126578   1.942   4.992  10.805
 4209WAT     H226579   2.093   5.001  10.789
 4210WAT      O26580   2.523   4.957   4.911
 4210WAT     H126581   2.448   4.958   4.852
 4210WAT     H226582   2.489   4.922   4.993
 4211WAT      O26583   3.786   3.008   9.639
 4211WAT     H126584   3.767   3.098   9.665
 4211WAT     H226585   3.880   3.007   9.621
 4212WAT      O26586   5.736   2.285   9.514
 4212WAT     H126587   5.670   2.352   9.497
 4212WAT     H226588   5.713   2.214   9.454
 4213WAT      O26589   1.827   1.095  10.481
 4213WAT     H126590   1.805   1.013  10.437
 4213WAT     H226591   1.752   1.112  10.539
 4214WAT      O26592   6.182   3.035   1.453
 4214WAT     H126593   6.164   2.993   1.536
 4214WAT     H226594   6.277   3.032   1.444
 4215WAT      O26595   4.380   2.210   9.246
 4215WAT     H126596   4.381   2.306   9.242
 4215WAT     H226597   4.323   2.184   9.173
 4216WAT      O26598   0.122   3.312   8.706
 4216WAT     H126599   0.207   3.289   8.668
 4216WAT     H226600   0.142   3.382   8.769
 4217WAT      O26601   2.573   3.831   8.637
 4217WAT     H126602   2.568   3.743   8.674
 4217WAT     H226603   2.665   3.842   8.612
 4218WAT      O26604   5.721   1.242   9.037
 4218WAT     H126605   5.689   1.211   8.952
 4218WAT     H226606   5.686   1.179   9.100
 4219WAT      O26607   5.984   2.758   8.434
 4219WAT     H126608   6.003   2.829   8.494
 4219WAT     H226609   5.939   2.692   8.488
 4220WAT      O26610   4.695   4.905   0.591
 4220WAT     H126611   4.776   4.956   0.582
 4220WAT     H226612   4.625   4.969   0.584
 4221WAT      O26613   1.544   3.216   0.876
 4221WAT     H126614   1.525   3.275   0.804
 4221WAT     H226615   1.459   3.184   0.905
 4222WAT      O26616   2.148   5.831   4.228
 4222WAT     H126617   2.205   5.781   4.287
 4222WAT     H226618   2.103   5.892   4.286
 4223WAT      O26619   3.047   5.802  12.305
 4223WAT     H126620   3.066   5.719  12.261
 4223WAT     H226621   3.127   5.853  12.294
 4224WAT      O26622   0.379   5.844  10.029
 4224WAT     H126623   0.330   5.768  10.061
 4224WAT     H226624   0.469   5.813  10.021
 4225WAT      O26625   2.235   4.930   0.136
 4225WAT     H126626   2.296   4.864   0.168
 4225WAT     H226627   2.211   4.980   0.214
 4226WAT      O26628   1.288   4.181   0.452
 4226WAT     H126629   1.234   4.151   0.378
 4226WAT     H226630   1.225   4.204   0.520
 4227WAT      O26631   3.600   2.380  10.803
 4227WAT     H126632   3.564   2.361  10.889
 4227WAT     H226633   3.599   2.296  10.757
 4228WAT      O26634   4.959   5.854   3.534
 4228WAT     H126635   4.964   5.765   3.502
 4228WAT     H226636   5.000   5.850   3.621
 4229WAT      O26637   2.157   2.663   2.237
 4229WAT     H126638   2.182   2.578   2.274
 4229WAT     H226639   2.241   2.706   2.220
 4230WAT      O26640   5.308   4.368   1.465
 4230WAT     H126641   5.262   4.358   1.381
 4230WAT     H226642   5.356   4.285   1.476
 4231WAT      O26643   0.829   0.983   0.838
 4231WAT     H126644   0.808   1.076   0.842
 4231WAT     H226645   0.769   0.943   0.901
 4232WAT      O26646   0.818   2.702   7.939
 4232WAT     H126647   0.734   2.654   7.939
 4232WAT     H226648   0.884   2.633   7.938
 4233WAT      O26649   0.587   4.010   2.621
 4233WAT     H126650   0.594   4.082   2.684
 4233WAT     H226651   0.550   4.050   2.542
 4234WAT      O26652   3.560   2.796   9.005
 4234WAT     H126653   3.652   2.822   8.996
 4234WAT     H226654   3.538   2.755   8.921
 4235WAT      O26655   0.751   2.284   8.371
 4235WAT     H126656   0.788   2.232   8.443
 4235WAT     H226657   0.718   2.363   8.413
 4236WAT      O26658   3.404   1.192   1.413
 4236WAT     H126659   3.483   1.220   1.460
 4236WAT     H226660   3.339   1.181   1.482
 4237WAT      O26661   0.216   5.616  10.080
 4237WAT     H126662   0.211   5.524  10.057
 4237WAT     H226663   0.212   5.617  10.176
 4238WAT      O26664   1.454   5.750   9.927
 4238WAT     H126665   1.430   5.843   9.933
 4238WAT     H226666   1.442   5.717  10.016
 4239WAT      O26667   3.512   4.766  10.134
 4239WAT     H126668   3.498   4.747  10.042
 4239WAT     H226669   3.603   4.796  10.138
 4240WAT      O26670   4.992   4.241   0.719
 4240WAT     H126671   4.984   4.266   0.627
 4240WAT     H226672   4.986   4.145   0.718
 4241WAT      O26673   5.836   1.294   9.539
 4241WAT     H126674   5.845   1.216   9.484
 4241WAT     H226675   5.762   1.276   9.596
 4242WAT      O26676   2.146   5.575  12.066
 4242WAT     H126677   2.231   5.551  12.030
 4242WAT     H226678   2.102   5.491  12.082
 4243WAT      O26679   2.753   6.074   1.246
 4243WAT     H126680   2.826   6.135   1.236
 4243WAT     H226681   2.679   6.118   1.205
 4244WAT      O26682   0.918   4.777  11.567
 4244WAT     H126683   0.968   4.802  11.645
 4244WAT     H226684   0.826   4.785  11.594
 4245WAT      O26685   1.099   2.970   4.667
 4245WAT     H126686   1.085   2.950   4.760
 4245WAT     H226687   1.194   2.978   4.659
 4246WAT      O26688   1.114   4.934   2.003
 4246WAT     H126689   1.067   4.989   2.067
 4246WAT     H226690   1.132   4.993   1.930
 4247WAT      O26691   2.934   4.812  10.556
 4247WAT     H126692   2.888   4.769  10.484
 4247WAT     H226693   2.869   4.817  10.626
 4248WAT      O26694   2.700   1.875   1.558
 4248WAT     H126695   2.663   1.861   1.471
 4248WAT     H226696   2.657   1.809   1.613
 4249WAT      O26697   0.818   5.341  10.267
 4249WAT     H126698   0.806   5.360  10.360
 4249WAT     H226699   0.912   5.351  10.252
 4250WAT      O26700   2.086   4.016   0.301
 4250WAT     H126701   2.072   3.922   0.311
 4250WAT     H226702   2.163   4.035   0.354
 4251WAT      O26703   3.305   5.932  10.184
 4251WAT     H126704   3.367   5.899  10.249
 4251WAT     H226705   3.354   5.932  10.102
 4252WAT      O26706   0.857   4.657  10.067
 4252WAT     H126707   0.827   4.707  10.143
 4252WAT     H226708   0.891   4.575  10.104
 4253WAT      O26709   2.346   4.877   2.194
 4253WAT     H126710   2.272   4.891   2.134
 4253WAT     H226711   2.377   4.966   2.213
 4254WAT      O26712   1.085   0.022   8.459
 4254WAT     H126713   1.111  -0.065   8.427
 4254WAT     H226714   1.070   0.073   8.379
 4255WAT      O26715   2.334   2.104  10.274
 4255WAT     H126716   2.330   2.196  10.297
 4255WAT     H226717   2.251   2.086  10.230
 4256WAT      O26718   2.456   0.441  11.961
 4256WAT     H126719   2.549   0.455  11.941
 4256WAT     H226720   2.426   0.526  11.994
 4257WAT      O26721   4.027   3.569  11.589
 4257WAT     H126722   4.080   3.544  11.514
 4257WAT     H226723   3.996   3.657  11.568
 4258WAT      O26724   0.165   1.108   3.541
 4258WAT     H126725   0.106   1.092   3.614
 4258WAT     H226726   0.244   1.144   3.581
 4259WAT      O26727   3.578   1.408   1.156
 4259WAT     H126728   3.566   1.392   1.062
 4259WAT     H226729   3.490   1.417   1.191
 4260WAT      O26730   5.545   3.043   8.305
 4260WAT     H126731   5.612   2.975   8.302
 4260WAT     H226732   5.513   3.049   8.215
 4261WAT      O26733   0.282   0.357  10.794
 4261WAT     H126734   0.306   0.431  10.738
 4261WAT     H226735   0.194   0.332  10.765
 4262WAT      O26736   0.473   4.957   2.837
 4262WAT     H126737   0.484   5.045   2.875
 4262WAT     H226738   0.560   4.936   2.802
 4263WAT      O26739   3.359   3.080   1.713
 4263WAT     H126740   3.295   3.016   1.683
 4263WAT     H226741   3.427   3.028   1.756
 4264WAT      O26742   0.220   0.734   1.890
 4264WAT     H126743   0.210   0.740   1.984
 4264WAT     H226744   0.131   0.718   1.857
 4265WAT      O26745   1.206   2.046   1.124
 4265WAT     H126746   1.273   2.034   1.057
 4265WAT     H226747   1.234   1.990   1.196
 4266WAT      O26748   3.376   3.927   1.813
 4266WAT     H126749   3.360   3.975   1.732
 4266WAT     H226750   3.454   3.967   1.850
 4267WAT      O26751   3.589   0.961  12.445
 4267WAT     H126752   3.559   0.904  12.374
 4267WAT     H226753   3.584   0.905  12.523
 4268WAT      O26754   5.523   5.303   0.705
 4268WAT     H126755   5.589   5.257   0.654
 4268WAT     H226756   5.450   5.316   0.644
 4269WAT      O26757   2.749   5.747   3.831
 4269WAT     H126758   2.798   5.756   3.912
 4269WAT     H226759   2.657   5.758   3.856
 4270WAT      O26760   5.505   6.047   4.211
 4270WAT     H126761   5.483   6.003   4.294
 4270WAT     H226762   5.599   6.064   4.218
 4271WAT      O26763   4.925   1.898   9.066
 4271WAT     H126764   4.983   1.897   9.143
 4271WAT     H226765   4.940   1.983   9.026
 4272WAT      O26766   4.987   3.977   2.393
 4272WAT     H126767   5.073   4.015   2.408
 4272WAT     H226768   4.931   4.052   2.372
 4273WAT      O26769   4.036   0.139   8.202
 4273WAT     H126770   4.074   0.198   8.267
 4273WAT     H226771   4.109   0.115   8.145
 4274WAT      O26772   3.340   5.082  11.368
 4274WAT     H126773   3.399   5.154  11.386
 4274WAT     H226774   3.363   5.015  11.433
 4275WAT      O26775   2.193   3.471   0.579
 4275WAT     H126776   2.229   3.548   0.623
 4275WAT     H226777   2.263   3.406   0.583
 4276WAT      O26778   0.549   3.611  11.702
 4276WAT     H126779   0.575   3.526  11.666
 4276WAT     H226780   0.554   3.598  11.797
 4277WAT      O26781   5.123   4.705   1.642
 4277WAT     H126782   5.113   4.798   1.622
 4277WAT     H226783   5.073   4.660   1.574
 4278WAT      O26784   5.630   0.385   0.036
 4278WAT     H126785   5.563   0.332   0.079
 4278WAT     H226786   5.675   0.323  -0.022
 4279WAT      O26787   5.590   0.763  12.367
 4279WAT     H126788   5.595   0.725  12.455
 4279WAT     H226789   5.616   0.854  12.378
 4280WAT      O26790   5.976   3.083  11.177
 4280WAT     H126791   6.020   3.136  11.111
 4280WAT     H226792   5.885   3.079  11.149
 4281WAT      O26793   4.646   5.031   3.658
 4281WAT     H126794   4.588   4.985   3.596
 4281WAT     H226795   4.733   5.024   3.619
 4282WAT      O26796   6.043   4.296  11.330
 4282WAT     H126797   6.015   4.334  11.414
 4282WAT     H226798   5.965   4.300  11.275
 4283WAT      O26799   1.893   1.310  12.572
 4283WAT     H126800   1.965   1.335  12.514
 4283WAT     H226801   1.834   1.385  12.571
 4284WAT      O26802   4.248   4.020   1.614
 4284WAT     H126803   4.342   4.039   1.623
 4284WAT     H226804   4.245   3.946   1.552
 4285WAT      O26805   0.029   5.443   2.390
 4285WAT     H126806   0.117   5.419   2.417
 4285WAT     H226807   0.038   5.465   2.297
 4286WAT      O26808   0.047   2.017   4.107
 4286WAT     H126809  -0.028   2.067   4.139
 4286WAT     H226810   0.035   1.930   4.145
 4287WAT      O26811   0.398   2.046  12.385
 4287WAT     H126812   0.315   2.000  12.384
 4287WAT     H226813   0.453   1.997  12.446
 4288WAT      O26814   2.558   6.199   1.152
 4288WAT     H126815   2.550   6.274   1.093
 4288WAT     H226816   2.477   6.150   1.139
 4289WAT      O26817   1.677   5.827   1.834
 4289WAT     H126818   1.673   5.922   1.822
 4289WAT     H226819   1.765   5.802   1.807
 4290WAT      O26820   0.811   4.312  10.680
 4290WAT     H126821   0.854   4.237  10.638
 4290WAT     H226822   0.730   4.323  10.632
 4291WAT      O26823   1.468   4.026   8.534
 4291WAT     H126824   1.434   3.977   8.460
 4291WAT     H226825   1.396   4.085   8.558
 4292WAT      O26826   4.621   0.931  10.235
 4292WAT     H126827   4.716   0.921  10.238
 4292WAT     H226828   4.606   0.993  10.164
 4293WAT      O26829   5.151   0.919   7.702
 4293WAT     H126830   5.168   0.833   7.741
 4293WAT     H226831   5.231   0.939   7.655
 4294WAT      O26832   4.414   2.792  11.706
 4294WAT     H126833   4.491   2.836  11.743
 4294WAT     H226834   4.343   2.814  11.766
 4295WAT      O26835   2.641   4.178   7.834
 4295WAT     H126836   2.676   4.188   7.746
 4295WAT     H226837   2.568   4.240   7.838
 4296WAT      O26838   2.356   3.209  12.649
 4296WAT     H126839   2.344   3.291  12.603
 4296WAT     H226840   2.402   3.233  12.730
 4297WAT      O26841   3.657   1.748   2.473
 4297WAT     H126842   3.608   1.823   2.442
 4297WAT     H226843   3.593   1.676   2.472
 4298WAT      O26844   5.685   2.307   4.581
 4298WAT     H126845   5.651   2.256   4.507
 4298WAT     H226846   5.680   2.398   4.552
 4299WAT      O26847   1.320   0.871   8.338
 4299WAT     H126848   1.291   0.897   8.251
 4299WAT     H226849   1.344   0.779   8.329
 4300WAT      O26850   0.880   5.328   1.856
 4300WAT     H126851   0.833   5.246   1.865
 4300WAT     H226852   0.965   5.304   1.820
 4301WAT      O26853   5.203   0.959   4.848
 4301WAT     H126854   5.134   0.992   4.906
 4301WAT     H226855   5.210   1.024   4.779
 4302WAT      O26856   3.202   1.159   1.908
 4302WAT     H126857   3.241   1.120   1.987
 4302WAT     H226858   3.266   1.223   1.878
 4303WAT      O26859   0.683   3.789   3.600
 4303WAT     H126860   0.650   3.879   3.602
 4303WAT     H226861   0.665   3.755   3.687
 4304WAT      O26862   6.170   0.539   0.545
 4304WAT     H126863   6.124   0.468   0.500
 4304WAT     H226864   6.184   0.606   0.478
 4305WAT      O26865   5.925   2.664   9.632
 4305WAT     H126866   5.865   2.638   9.562
 4305WAT     H226867   5.910   2.758   9.643
 4306WAT      O26868   0.040   2.465  10.832
 4306WAT     H126869   0.042   2.405  10.758
 4306WAT     H226870   0.130   2.466  10.865
 4307WAT      O26871   4.144   2.388  10.286
 4307WAT     H126872   4.166   2.329  10.358
 4307WAT     H226873   4.050   2.400  10.293
 4308WAT      O26874   4.854   2.532   1.609
 4308WAT     H126875   4.819   2.443   1.605
 4308WAT     H226876   4.819   2.575   1.531
 4309WAT      O26877   2.744   1.483   7.862
 4309WAT     H126878   2.800   1.411   7.891
 4309WAT     H226879   2.655   1.448   7.866
 4310WAT      O26880   5.224   5.415   2.241
 4310WAT     H126881   5.195   5.506   2.231
 4310WAT     H226882   5.277   5.416   2.321
 4311WAT      O26883   3.956   4.645   4.528
 4311WAT     H126884   3.902   4.671   4.602
 4311WAT     H226885   4.002   4.725   4.503
 4312WAT      O26886   0.190   5.568   3.554
 4312WAT     H126887   0.156   5.479   3.547
 4312WAT     H226888   0.260   5.571   3.488
 4313WAT      O26889   3.378   0.161   9.372
 4313WAT     H126890   3.324   0.226   9.418
 4313WAT     H226891   3.466   0.199   9.373
 4314WAT      O26892   0.267   0.752   9.618
 4314WAT     H126893   0.226   0.725   9.535
 4314WAT     H226894   0.282   0.669   9.665
 4315WAT      O26895   2.692   1.353   0.016
 4315WAT     H126896   2.604   1.356  -0.021
 4315WAT     H226897   2.684   1.296   0.093
 4316WAT      O26898   4.203   3.324  10.547
 4316WAT     H126899   4.158   3.272  10.481
 4316WAT     H226900   4.284   3.277  10.564
 4317WAT      O26901   4.690   0.026   8.502
 4317WAT     H126902   4.647   0.107   8.474
 4317WAT     H226903   4.658  -0.040   8.440
 4318WAT      O26904   3.308   4.943  12.461
 4318WAT     H126905   3.303   4.906  12.550
 4318WAT     H226906   3.373   4.888  12.417
 4319WAT      O26907   3.102   1.773   7.877
 4319WAT     H126908   3.131   1.686   7.904
 4319WAT     H226909   3.041   1.757   7.805
 4320WAT      O26910   2.527   0.647   9.057
 4320WAT     H126911   2.545   0.582   9.125
 4320WAT     H226912   2.584   0.720   9.077
 4321WAT      O26913   1.942   1.987   8.233
 4321WAT     H126914   1.915   1.949   8.316
 4321WAT     H226915   1.983   1.914   8.186
 4322WAT      O26916   5.557   1.954   8.218
 4322WAT     H126917   5.519   1.877   8.260
 4322WAT     H226918   5.577   1.925   8.129
 4323WAT      O26919   5.182   5.819   8.327
 4323WAT     H126920   5.277   5.831   8.339
 4323WAT     H226921   5.174   5.779   8.240
 4324WAT      O26922   6.084   2.258  11.414
 4324WAT     H126923   6.163   2.312  11.412
 4324WAT     H226924   6.042   2.273  11.329
 4325WAT      O26925   5.005   0.227   9.886
 4325WAT     H126926   4.911   0.243   9.895
 4325WAT     H226927   5.044   0.314   9.876
 4326WAT      O26928   1.556   2.603   4.017
 4326WAT     H126929   1.471   2.607   4.061
 4326WAT     H226930   1.614   2.561   4.080
 4327WAT      O26931   0.900   3.431   2.643
 4327WAT     H126932   0.880   3.456   2.553
 4327WAT     H226933   0.988   3.392   2.638
 4328WAT      O26934   0.814   2.856   0.765
 4328WAT     H126935   0.790   2.949   0.760
 4328WAT     H226936   0.747   2.811   0.713
 4329WAT      O26937   4.211   2.118   9.059
 4329WAT     H126938   4.273   2.046   9.058
 4329WAT     H226939   4.130   2.081   9.094
 4330WAT      O26940   0.880   0.356   1.267
 4330WAT     H126941   0.796   0.357   1.313
 4330WAT     H226942   0.891   0.446   1.236
 4331WAT      O26943   6.099   2.145  12.278
 4331WAT     H126944   6.084   2.239  12.283
 4331WAT     H226945   6.168   2.128  12.342
 4332WAT      O26946   1.012   1.335  10.752
 4332WAT     H126947   1.036   1.367  10.839
 4332WAT     H226948   0.971   1.411  10.709
 4333WAT      O26949   2.985   4.450   1.639
 4333WAT     H126950   3.037   4.369   1.639
 4333WAT     H226951   3.009   4.493   1.721
 4334WAT      O26952   3.944   3.638  10.115
 4334WAT     H126953   3.949   3.704  10.046
 4334WAT     H226954   3.986   3.679  10.190
 4335WAT      O26955   1.063   4.917  11.351
 4335WAT     H126956   0.980   4.948  11.313
 4335WAT     H226957   1.038   4.881  11.435
 4336WAT      O26958   5.023   5.347   1.086
 4336WAT     H126959   5.087   5.405   1.044
 4336WAT     H226960   4.940   5.393   1.077
 4337WAT      O26961   2.605   4.849   2.578
 4337WAT     H126962   2.528   4.901   2.601
 4337WAT     H226963   2.679   4.907   2.595
 4338WAT      O26964   5.641   4.122  11.222
 4338WAT     H126965   5.585   4.160  11.154
 4338WAT     H226966   5.581   4.094  11.290
 4339WAT      O26967   3.518   1.754   0.041
 4339WAT     H126968   3.579   1.691   0.003
 4339WAT     H226969   3.569   1.799   0.109
 4340WAT      O26970   3.558   3.407   3.542
 4340WAT     H126971   3.538   3.313   3.545
 4340WAT     H226972   3.603   3.419   3.459
 4341WAT      O26973   0.576   5.998  10.575
 4341WAT     H126974   0.541   5.929  10.630
 4341WAT     H226975   0.619   5.952  10.503
 4342WAT      O26976   2.763   3.786  10.243
 4342WAT     H126977   2.691   3.731  10.275
 4342WAT     H226978   2.786   3.749  10.158
 4343WAT      O26979   3.622   1.838   3.337
 4343WAT     H126980   3.673   1.919   3.338
 4343WAT     H226981   3.562   1.848   3.263
 4344WAT      O26982   4.428   2.075   9.846
 4344WAT     H126983   4.347   2.118   9.873
 4344WAT     H226984   4.418   1.984   9.875
 4345WAT      O26985   0.070   3.489   3.220
 4345WAT     H126986   0.163   3.483   3.196
 4345WAT     H226987   0.046   3.401   3.247
 4346WAT      O26988   4.847   6.038   9.581
 4346WAT     H126989   4.884   5.958   9.619
 4346WAT     H226990   4.894   6.109   9.623
 4347WAT      O26991   5.879   2.384   8.440
 4347WAT     H126992   5.864   2.358   8.530
 4347WAT     H226993   5.907   2.304   8.396
 4348WAT      O26994   2.416   5.821   9.046
 4348WAT     H126995   2.334   5.794   9.088
 4348WAT     H226996   2.443   5.746   8.994
 4349WAT      O26997   3.143   0.190   2.196
 4349WAT     H126998   3.218   0.141   2.163
 4349WAT     H226999   3.071   0.166   2.137
 4350WAT      O27000   5.481   0.634   9.375
 4350WAT     H127001   5.451   0.691   9.305
 4350WAT     H227002   5.575   0.648   9.380
 4351WAT      O27003   2.986   2.098   2.471
 4351WAT     H127004   3.006   2.064   2.558
 4351WAT     H227005   2.891   2.096   2.465
 4352WAT      O27006   0.000   2.505   8.593
 4352WAT     H127007   0.051   2.552   8.527
 4352WAT     H227008   0.030   2.542   8.676
 4353WAT      O27009   1.802   3.153  10.455
 4353WAT     H127010   1.848   3.206  10.390
 4353WAT     H227011   1.837   3.064  10.443
 4354WAT      O27012   0.654   1.865   4.442
 4354WAT     H127013   0.619   1.851   4.530
 4354WAT     H227014   0.743   1.897   4.456
 4355WAT      O27015   5.855   4.484   9.671
 4355WAT     H127016   5.913   4.556   9.697
 4355WAT     H227017   5.885   4.461   9.583
 4356WAT      O27018   1.993   3.729   8.057
 4356WAT     H127019   2.073   3.762   8.016
 4356WAT     H227020   1.945   3.807   8.084
 4357WAT      O27021   5.378   5.896   8.624
 4357WAT     H127022   5.296   5.944   8.636
 4357WAT     H227023   5.441   5.943   8.679
 4358WAT      O27024   5.076   1.141   1.254
 4358WAT     H127025   4.999   1.135   1.199
 4358WAT     H227026   5.110   1.230   1.240
 4359WAT      O27027   6.204   1.735   4.131
 4359WAT     H127028   6.270   1.764   4.068
 4359WAT     H227029   6.224   1.643   4.146
 4360WAT      O27030   5.636   3.885  11.829
 4360WAT     H127031   5.731   3.876  11.827
 4360WAT     H227032   5.604   3.799  11.854
 4361WAT      O27033   4.876   5.190  10.807
 4361WAT     H127034   4.925   5.165  10.729
 4361WAT     H227035   4.839   5.108  10.839
 4362WAT      O27036   3.650   5.307  11.127
 4362WAT     H127037   3.705   5.385  11.131
 4362WAT     H227038   3.636   5.292  11.033
 4363WAT      O27039   1.356   3.522   3.552
 4363WAT     H127040   1.367   3.529   3.647
 4363WAT     H227041   1.361   3.428   3.534
 4364WAT      O27042   5.137   5.361  11.483
 4364WAT     H127043   5.098   5.279  11.452
 4364WAT     H227044   5.122   5.423  11.411
 4365WAT      O27045   2.777   2.689   9.383
 4365WAT     H127046   2.769   2.784   9.385
 4365WAT     H227047   2.863   2.672   9.424
 4366WAT      O27048   0.207   1.026   8.291
 4366WAT     H127049   0.296   1.047   8.262
 4366WAT     H227050   0.152   1.093   8.250
 4367WAT      O27051   6.066   2.515   7.379
 4367WAT     H127052   6.004   2.522   7.452
 4367WAT     H227053   6.118   2.595   7.383
 4368WAT      O27054   0.454   1.546   4.131
 4368WAT     H127055   0.440   1.562   4.224
 4368WAT     H227056   0.429   1.628   4.088
 4369WAT      O27057   4.826   1.089   1.872
 4369WAT     H127058   4.877   1.137   1.938
 4369WAT     H227059   4.762   1.040   1.922
 4370WAT      O27060   4.525   0.064   0.062
 4370WAT     H127061   4.618   0.043   0.069
 4370WAT     H227062   4.482   0.006   0.125
 4371WAT      O27063   5.754   4.402   2.752
 4371WAT     H127064   5.708   4.433   2.674
 4371WAT     H227065   5.688   4.349   2.798
 4372WAT      O27066   3.628   5.651   8.672
 4372WAT     H127067   3.644   5.592   8.599
 4372WAT     H227068   3.582   5.726   8.633
 4373WAT      O27069   2.299   2.551   3.765
 4373WAT     H127070   2.217   2.567   3.811
 4373WAT     H227071   2.362   2.527   3.833
 4374WAT      O27072   2.661   2.354   0.163
 4374WAT     H127073   2.746   2.311   0.158
 4374WAT     H227074   2.597   2.282   0.162
 4375WAT      O27075   2.773   4.107  12.581
 4375WAT     H127076   2.797   4.171  12.648
 4375WAT     H227077   2.770   4.023  12.627
 4376WAT      O27078   5.540   5.378   3.476
 4376WAT     H127079   5.607   5.425   3.426
 4376WAT     H227080   5.471   5.360   3.412
 4377WAT      O27081   4.514   3.809   4.151
 4377WAT     H127082   4.537   3.725   4.113
 4377WAT     H227083   4.565   3.814   4.232
 4378WAT      O27084   1.377   0.666   9.756
 4378WAT     H127085   1.417   0.607   9.692
 4378WAT     H227086   1.391   0.754   9.720
 4379WAT      O27087   2.249   3.497   8.712
 4379WAT     H127088   2.179   3.487   8.648
 4379WAT     H227089   2.267   3.408   8.741
 4380WAT      O27090   5.836   1.856  11.578
 4380WAT     H127091   5.839   1.902  11.494
 4380WAT     H227092   5.928   1.839  11.599
 4381WAT      O27093   0.260   4.004   8.744
 4381WAT     H127094   0.304   3.934   8.793
 4381WAT     H227095   0.197   3.958   8.689
 4382WAT      O27096   2.308   3.944  10.881
 4382WAT     H127097   2.374   3.877  10.900
 4382WAT     H227098   2.306   3.998  10.961
 4383WAT      O27099   0.108   3.945   8.114
 4383WAT     H127100   0.156   4.007   8.168
 4383WAT     H227101   0.111   3.982   8.026
 4384WAT      O27102   2.542   0.978   2.075
 4384WAT     H127103   2.635   0.955   2.079
 4384WAT     H227104   2.533   1.021   1.990
 4385WAT      O27105   1.538   4.399   2.972
 4385WAT     H127106   1.608   4.395   2.906
 4385WAT     H227107   1.457   4.393   2.921
 4386WAT      O27108   3.859   2.214   9.655
 4386WAT     H127109   3.805   2.257   9.721
 4386WAT     H227110   3.946   2.250   9.668
 4387WAT      O27111   2.315   2.574   4.793
 4387WAT     H127112   2.236   2.561   4.846
 4387WAT     H227113   2.307   2.663   4.759
 4388WAT      O27114   4.706   5.235  12.423
 4388WAT     H127115   4.726   5.244  12.516
 4388WAT     H227116   4.611   5.232  12.419
 4389WAT      O27117   0.446   0.103   8.134
 4389WAT     H127118   0.473   0.172   8.194
 4389WAT     H227119   0.524   0.087   8.080
 4390WAT      O27120   5.887   1.719   0.881
 4390WAT     H127121   5.916   1.791   0.825
 4390WAT     H227122   5.822   1.672   0.829
 4391WAT      O27123   1.537   5.480   4.608
 4391WAT     H127124   1.589   5.401   4.622
 4391WAT     H227125   1.472   5.478   4.678
 4392WAT      O27126   2.362   0.278   2.554
 4392WAT     H127127   2.337   0.287   2.462
 4392WAT     H227128   2.454   0.253   2.552
 4393WAT      O27129   3.479   2.579  10.130
 4393WAT     H127130   3.486   2.500  10.076
 4393WAT     H227131   3.545   2.638  10.096
 4394WAT      O27132   4.378   1.094   8.045
 4394WAT     H127133   4.287   1.123   8.035
 4394WAT     H227134   4.371   1.007   8.086
 4395WAT      O27135   5.205   5.045  10.199
 4395WAT     H127136   5.123   5.015  10.238
 4395WAT     H227137   5.274   5.001  10.249
 4396WAT      O27138   0.217   0.707  10.261
 4396WAT     H127139   0.126   0.737  10.257
 4396WAT     H227140   0.260   0.753  10.188
 4397WAT      O27141   0.563   2.527  10.781
 4397WAT     H127142   0.579   2.611  10.824
 4397WAT     H227143   0.598   2.538  10.693
 4398WAT      O27144   0.228   2.996   3.451
 4398WAT     H127145   0.272   3.068   3.406
 4398WAT     H227146   0.223   2.926   3.385
 4399WAT      O27147   1.478   3.210   8.632
 4399WAT     H127148   1.464   3.293   8.678
 4399WAT     H227149   1.398   3.198   8.580
 4400WAT      O27150   5.278   2.087   7.277
 4400WAT     H127151   5.233   2.153   7.329
 4400WAT     H227152   5.368   2.119   7.269
 4401WAT      O27153   5.222   3.266  11.768
 4401WAT     H127154   5.257   3.309  11.847
 4401WAT     H227155   5.259   3.317  11.695
 4402WAT      O27156   2.904   5.961   1.686
 4402WAT     H127157   2.889   5.900   1.613
 4402WAT     H227158   2.998   5.956   1.702
 4403WAT      O27159   2.811   6.050   1.924
 4403WAT     H127160   2.719   6.074   1.919
 4403WAT     H227161   2.832   6.016   1.837
 4404WAT      O27162   1.387   1.425   8.557
 4404WAT     H127163   1.455   1.483   8.592
 4404WAT     H227164   1.360   1.466   8.475
 4405WAT      O27165   0.925   0.606   9.369
 4405WAT     H127166   0.940   0.555   9.290
 4405WAT     H227167   0.991   0.575   9.430
 4406WAT      O27168   2.646   3.343   4.200
 4406WAT     H127169   2.616   3.338   4.109
 4406WAT     H227170   2.736   3.312   4.197
 4407WAT      O27171   4.005   5.678   2.973
 4407WAT     H127172   4.008   5.771   2.948
 4407WAT     H227173   4.081   5.666   3.030
 4408WAT      O27174   5.544   4.128   0.414
 4408WAT     H127175   5.603   4.199   0.387
 4408WAT     H227176   5.494   4.164   0.486
 4409WAT      O27177   4.954   1.111  10.108
 4409WAT     H127178   5.028   1.146  10.158
 4409WAT     H227179   4.940   1.024  10.144
 4410WAT      O27180   5.110   3.640  10.312
 4410WAT     H127181   5.038   3.635  10.375
 4410WAT     H227182   5.142   3.550  10.306
 4411WAT      O27183   5.004   2.284   9.605
 4411WAT     H127184   5.027   2.208   9.658
 4411WAT     H227185   5.005   2.252   9.515
 4412WAT      O27186   0.275   4.795   9.339
 4412WAT     H127187   0.291   4.881   9.301
 4412WAT     H227188   0.190   4.768   9.305
 4413WAT      O27189   3.601   2.551   1.740
 4413WAT     H127190   3.566   2.607   1.809
 4413WAT     H227191   3.652   2.611   1.684
 4414WAT      O27192   1.520   0.180   4.508
 4414WAT     H127193   1.475   0.259   4.537
 4414WAT     H227194   1.470   0.108   4.547
 4415WAT      O27195   0.819   4.988  11.200
 4415WAT     H127196   0.745   4.935  11.172
 4415WAT     H227197   0.799   5.077  11.170
 4416WAT      O27198   0.962   5.252   8.108
 4416WAT     H127199   0.968   5.294   8.193
 4416WAT     H227200   1.021   5.302   8.052
 4417WAT      O27201   0.055   2.446   3.012
 4417WAT     H127202   0.130   2.490   3.052
 4417WAT     H227203  -0.008   2.437   3.083
 4418WAT      O27204   5.959   1.358   8.909
 4418WAT     H127205   5.871   1.339   8.942
 4418WAT     H227206   5.994   1.273   8.882
 4419WAT      O27207   3.996   3.865   8.515
 4419WAT     H127208   4.009   3.861   8.420
 4419WAT     H227209   3.955   3.949   8.530
 4420WAT      O27210   2.651   4.788  11.027
 4420WAT     H127211   2.647   4.695  11.046
 4420WAT     H227212   2.568   4.808  10.985
 4421WAT      O27213   0.869   1.614   8.595
 4421WAT     H127214   0.851   1.707   8.579
 4421WAT     H227215   0.942   1.594   8.536
 4422WAT      O27216   4.819   5.273   4.038
 4422WAT     H127217   4.771   5.346   4.077
 4422WAT     H227218   4.834   5.299   3.947
 4423WAT      O27219   5.915   2.752   0.087
 4423WAT     H127220   5.841   2.692   0.083
 4423WAT     H227221   5.882   2.829   0.134
 4424WAT      O27222   0.270   1.659   2.496
 4424WAT     H127223   0.259   1.704   2.579
 4424WAT     H227224   0.360   1.626   2.498
 4425WAT      O27225   5.720   2.987  10.024
 4425WAT     H127226   5.647   2.939   9.985
 4425WAT     H227227   5.798   2.935  10.004
 4426WAT      O27228   3.757   3.695   4.082
 4426WAT     H127229   3.713   3.746   4.015
 4426WAT     H227230   3.819   3.757   4.122
 4427WAT      O27231   1.076   5.810   1.831
 4427WAT     H127232   0.981   5.805   1.819
 4427WAT     H227233   1.091   5.897   1.868
 4428WAT      O27234   0.823   2.515   3.957
 4428WAT     H127235   0.832   2.584   4.023
 4428WAT     H227236   0.806   2.435   4.008
 4429WAT      O27237   1.254   5.263   2.071
 4429WAT     H127238   1.187   5.260   2.003
 4429WAT     H227239   1.209   5.297   2.148
 4430WAT      O27240   6.225   3.373   7.495
 4430WAT     H127241   6.154   3.317   7.527
 4430WAT     H227242   6.218   3.454   7.546
 4431WAT      O27243   0.142   4.949   3.528
 4431WAT     H127244   0.055   4.944   3.489
 4431WAT     H227245   0.171   5.039   3.510
 4432WAT      O27246   3.022   5.802   9.259
 4432WAT     H127247   3.108   5.844   9.267
 4432WAT     H227248   2.979   5.850   9.189
 4433WAT      O27249   1.412   1.212   2.103
 4433WAT     H127250   1.317   1.202   2.113
 4433WAT     H227251   1.437   1.270   2.175
 4434WAT      O27252   3.893   2.398   1.641
 4434WAT     H127253   3.810   2.437   1.670
 4434WAT     H227254   3.960   2.458   1.674
 4435WAT      O27255   0.608   2.194   8.842
 4435WAT     H127256   0.683   2.185   8.901
 4435WAT     H227257   0.545   2.128   8.872
 4436WAT      O27258   3.288   4.415  11.486
 4436WAT     H127259   3.375   4.446  11.464
 4436WAT     H227260   3.241   4.494  11.515
 4437WAT      O27261   5.706   5.890   1.657
 4437WAT     H127262   5.766   5.953   1.615
 4437WAT     H227263   5.672   5.937   1.733
 4438WAT      O27264   2.640   1.153   8.390
 4438WAT     H127265   2.679   1.160   8.303
 4438WAT     H227266   2.600   1.239   8.405
 4439WAT      O27267   1.921   0.074   9.206
 4439WAT     H127268   1.961   0.017   9.140
 4439WAT     H227269   1.938   0.029   9.289
 4440WAT      O27270   2.406   3.651   2.656
 4440WAT     H127271   2.338   3.696   2.707
 4440WAT     H227272   2.375   3.561   2.650
 4441WAT      O27273   5.080   4.535  11.782
 4441WAT     H127274   4.999   4.564  11.824
 4441WAT     H227275   5.076   4.439  11.784
 4442WAT      O27276   3.033   4.627   4.193
 4442WAT     H127277   2.995   4.583   4.269
 4442WAT     H227278   3.069   4.709   4.227
 4443WAT      O27279   3.130   2.409  10.752
 4443WAT     H127280   3.159   2.356  10.678
 4443WAT     H227281   3.058   2.462  10.717
 4444WAT      O27282   2.831   5.369   9.876
 4444WAT     H127283   2.811   5.276   9.864
 4444WAT     H227284   2.873   5.373   9.962
 4445WAT      O27285   4.987   5.236   9.663
 4445WAT     H127286   5.058   5.252   9.601
 4445WAT     H227287   4.965   5.144   9.651
 4446WAT      O27288   1.899   1.181   1.766
 4446WAT     H127289   1.979   1.145   1.805
 4446WAT     H227290   1.877   1.255   1.824
 4447WAT      O27291   1.723   2.390  11.711
 4447WAT     H127292   1.645   2.427  11.753
 4447WAT     H227293   1.713   2.295  11.720
 4448WAT      O27294   5.045   2.407  10.879
 4448WAT     H127295   5.058   2.346  10.807
 4448WAT     H227296   5.003   2.355  10.948
 4449WAT      O27297   0.484   4.059  11.846
 4449WAT     H127298   0.488   3.968  11.876
 4449WAT     H227299   0.433   4.055  11.765
 4450WAT      O27300   2.749   4.764   0.801
 4450WAT     H127301   2.662   4.794   0.828
 4450WAT     H227302   2.763   4.806   0.716
 4451WAT      O27303   1.887   1.876   1.006
 4451WAT     H127304   1.936   1.955   1.029
 4451WAT     H227305   1.948   1.824   0.954
 4452WAT      O27306   3.487   0.306   3.196
 4452WAT     H127307   3.433   0.314   3.275
 4452WAT     H227308   3.443   0.360   3.131
 4453WAT      O27309   1.785   1.841   3.769
 4453WAT     H127310   1.861   1.843   3.711
 4453WAT     H227311   1.712   1.813   3.713
 4454WAT      O27312   2.622   6.017  12.220
 4454WAT     H127313   2.642   6.009  12.127
 4454WAT     H227314   2.655   5.936  12.259
 4455WAT      O27315   3.369   4.420   4.328
 4455WAT     H127316   3.293   4.409   4.385
 4455WAT     H227317   3.444   4.423   4.387
 4456WAT      O27318   3.001   1.219   2.668
 4456WAT     H127319   3.035   1.293   2.618
 4456WAT     H227320   2.940   1.258   2.730
 4457WAT      O27321   4.410   5.415   9.450
 4457WAT     H127322   4.500   5.388   9.471
 4457WAT     H227323   4.420   5.481   9.381
 4458WAT      O27324   2.997   5.748   3.374
 4458WAT     H127325   2.913   5.789   3.391
 4458WAT     H227326   2.983   5.695   3.296
 4459WAT      O27327   1.933   0.569   0.344
 4459WAT     H127328   1.840   0.578   0.365
 4459WAT     H227329   1.977   0.566   0.430
 4460WAT      O27330   1.983   3.060   2.922
 4460WAT     H127331   2.022   2.974   2.933
 4460WAT     H227332   2.054   3.121   2.941
 4461WAT      O27333   4.584   0.455   9.617
 4461WAT     H127334   4.540   0.527   9.571
 4461WAT     H227335   4.612   0.494   9.700
 4462WAT      O27336   2.097   1.629   4.596
 4462WAT     H127337   2.075   1.539   4.622
 4462WAT     H227338   2.175   1.650   4.647
 4463WAT      O27339   4.708   5.470  10.969
 4463WAT     H127340   4.617   5.501  10.965
 4463WAT     H227341   4.710   5.395  10.910
 4464WAT      O27342   5.587   5.247  12.172
 4464WAT     H127343   5.534   5.187  12.224
 4464WAT     H227344   5.527   5.317  12.147
 4465WAT      O27345   2.065   5.258   4.257
 4465WAT     H127346   2.101   5.249   4.168
 4465WAT     H227347   1.971   5.270   4.244
 4466WAT      O27348   4.631   2.830   3.467
 4466WAT     H127349   4.669   2.770   3.403
 4466WAT     H227350   4.585   2.896   3.415
 4467WAT      O27351   2.130   1.123   3.048
 4467WAT     H127352   2.164   1.185   3.112
 4467WAT     H227353   2.068   1.069   3.098
 4468WAT      O27354   1.026   5.827   2.324
 4468WAT     H127355   1.102   5.831   2.267
 4468WAT     H227356   0.981   5.910   2.309
 4469WAT      O27357   0.821   2.109  12.186
 4469WAT     H127358   0.755   2.172  12.157
 4469WAT     H227359   0.902   2.159  12.190
 4470WAT      O27360   1.408   1.639   2.562
 4470WAT     H127361   1.419   1.726   2.525
 4470WAT     H227362   1.314   1.631   2.579
 4471WAT      O27363   5.619   0.738   3.829
 4471WAT     H127364   5.570   0.724   3.911
 4471WAT     H227365   5.559   0.708   3.761
 4472WAT      O27366   4.395   1.945   8.651
 4472WAT     H127367   4.385   1.964   8.557
 4472WAT     H227368   4.308   1.956   8.687
 4473WAT      O27369   6.197   4.393   3.143
 4473WAT     H127370   6.256   4.457   3.182
 4473WAT     H227371   6.193   4.322   3.207
 4474WAT      O27372   0.236   2.216  10.048
 4474WAT     H127373   0.303   2.276  10.018
 4474WAT     H227374   0.250   2.209  10.143
 4475WAT      O27375   4.365   5.664  11.477
 4475WAT     H127376   4.424   5.722  11.429
 4475WAT     H227377   4.325   5.609  11.410
 4476WAT      O27378   1.026   6.171  11.165
 4476WAT     H127379   0.983   6.145  11.084
 4476WAT     H227380   1.114   6.197  11.138
 4477WAT      O27381   0.345   5.327  11.330
 4477WAT     H127382   0.432   5.304  11.297
 4477WAT     H227383   0.355   5.329  11.425
 4478WAT      O27384   6.083   2.580  11.912
 4478WAT     H127385   6.141   2.615  11.844
 4478WAT     H227386   6.059   2.655  11.965
 4479WAT      O27387   3.465   3.986   3.258
 4479WAT     H127388   3.433   3.952   3.175
 4479WAT     H227389   3.483   4.078   3.240
 4480WAT      O27390   0.164   3.507  10.440
 4480WAT     H127391   0.116   3.568  10.496
 4480WAT     H227392   0.097   3.474  10.379
 4481WAT      O27393   1.237   5.141   9.964
 4481WAT     H127394   1.332   5.132   9.971
 4481WAT     H227395   1.222   5.171   9.874
 4482WAT      O27396   4.799   4.162   2.281
 4482WAT     H127397   4.707   4.172   2.257
 4482WAT     H227398   4.831   4.252   2.291
 4483WAT      O27399   2.373   5.356  11.468
 4483WAT     H127400   2.365   5.449  11.489
 4483WAT     H227401   2.458   5.330  11.504
 4484WAT      O27402   5.993   0.306   2.381
 4484WAT     H127403   6.028   0.244   2.445
 4484WAT     H227404   6.052   0.381   2.387
 4485WAT      O27405   0.831   4.098  11.544
 4485WAT     H127406   0.875   4.182  11.554
 4485WAT     H227407   0.902   4.033  11.548
 4486WAT      O27408   2.138   0.736  10.990
 4486WAT     H127409   2.084   0.813  10.970
 4486WAT     H227410   2.080   0.662  10.976
 4487WAT      O27411   3.762   3.391  10.885
 4487WAT     H127412   3.791   3.353  10.802
 4487WAT     H227413   3.843   3.406  10.935
 4488WAT      O27414   2.505   0.596   2.024
 4488WAT     H127415   2.571   0.582   2.092
 4488WAT     H227416   2.502   0.513   1.976
 4489WAT      O27417   0.309   0.327   9.055
 4489WAT     H127418   0.360   0.251   9.082
 4489WAT     H227419   0.374   0.393   9.031
 4490WAT      O27420   4.224   3.930  11.199
 4490WAT     H127421   4.268   3.855  11.158
 4490WAT     H227422   4.289   3.967  11.259
 4491WAT      O27423   5.214   2.036  10.021
 4491WAT     H127424   5.255   2.119   9.998
 4491WAT     H227425   5.266   1.969   9.976
 4492WAT      O27426   4.859   2.758   3.737
 4492WAT     H127427   4.768   2.780   3.715
 4492WAT     H227428   4.909   2.784   3.660
 4493WAT      O27429   5.916   1.020  10.811
 4493WAT     H127430   5.990   1.075  10.786
 4493WAT     H227431   5.946   0.930  10.796
 4494WAT      O27432   0.753   4.467   3.189
 4494WAT     H127433   0.683   4.416   3.229
 4494WAT     H227434   0.753   4.550   3.236
 4495WAT      O27435   1.856   0.214   2.387
 4495WAT     H127436   1.768   0.241   2.360
 4495WAT     H227437   1.913   0.285   2.358
 4496WAT      O27438   3.668   3.715   2.609
 4496WAT     H127439   3.629   3.657   2.675
 4496WAT     H227440   3.679   3.659   2.532
 4497WAT      O27441   5.266   0.832   1.567
 4497WAT     H127442   5.261   0.747   1.523
 4497WAT     H227443   5.192   0.881   1.530
 4498WAT      O27444   4.907   0.289   3.980
 4498WAT     H127445   4.884   0.269   4.071
 4498WAT     H227446   4.881   0.211   3.931
 4499WAT      O27447   0.002   1.162  11.819
 4499WAT     H127448   0.005   1.183  11.913
 4499WAT     H227449   0.078   1.207  11.782
 4500WAT      O27450   5.432   4.698   9.807
 4500WAT     H127451   5.355   4.672   9.857
 4500WAT     H227452   5.490   4.622   9.810
 4501WAT      O27453   0.976   1.737  10.932
 4501WAT     H127454   1.061   1.702  10.907
 4501WAT     H227455   0.913   1.672  10.899
 4502WAT      O27456   4.650   4.054   4.390
 4502WAT     H127457   4.714   4.097   4.334
 4502WAT     H227458   4.680   4.072   4.479
 4503WAT      O27459   1.772   2.494   0.160
 4503WAT     H127460   1.756   2.491   0.066
 4503WAT     H227461   1.766   2.587   0.183
 4504WAT      O27462   3.900   3.471   2.190
 4504WAT     H127463   3.819   3.497   2.234
 4504WAT     H227464   3.871   3.439   2.104
 4505WAT      O27465   1.773   2.368   8.196
 4505WAT     H127466   1.716   2.304   8.238
 4505WAT     H227467   1.805   2.422   8.269
 4506WAT      O27468   4.842   2.621   8.184
 4506WAT     H127469   4.870   2.559   8.252
 4506WAT     H227470   4.759   2.656   8.216
 4507WAT      O27471   4.887   3.953  11.672
 4507WAT     H127472   4.898   4.020  11.605
 4507WAT     H227473   4.797   3.922  11.660
 4508WAT      O27474   3.870   2.302   2.275
 4508WAT     H127475   3.873   2.392   2.242
 4508WAT     H227476   3.961   2.281   2.294
 4509WAT      O27477   6.129   5.549   1.803
 4509WAT     H127478   6.152   5.507   1.886
 4509WAT     H227479   6.113   5.641   1.826
 4510WAT      O27480   5.840   4.137   9.425
 4510WAT     H127481   5.829   4.111   9.334
 4510WAT     H227482   5.760   4.105   9.468
 4511WAT      O27483   0.905   1.474   0.162
 4511WAT     H127484   0.880   1.534   0.233
 4511WAT     H227485   0.836   1.408   0.161
 4512WAT      O27486   2.241   4.809  12.054
 4512WAT     H127487   2.245   4.872  12.126
 4512WAT     H227488   2.216   4.862  11.978
 4513WAT      O27489   1.616   1.320   8.904
 4513WAT     H127490   1.710   1.338   8.911
 4513WAT     H227491   1.574   1.401   8.932
 4514WAT      O27492   5.458   1.735   1.454
 4514WAT     H127493   5.454   1.751   1.360
 4514WAT     H227494   5.506   1.809   1.490
 4515WAT      O27495   3.037   1.428   2.484
 4515WAT     H127496   3.021   1.357   2.422
 4515WAT     H227497   3.041   1.507   2.429
 4516WAT      O27498   5.572   1.971   3.284
 4516WAT     H127499   5.514   1.972   3.361
 4516WAT     H227500   5.527   1.914   3.222
 4517WAT      O27501   0.749   5.389   4.106
 4517WAT     H127502   0.751   5.301   4.068
 4517WAT     H227503   0.656   5.410   4.111
 4518WAT      O27504   1.094   3.973   9.565
 4518WAT     H127505   1.093   3.914   9.490
 4518WAT     H227506   1.057   4.054   9.532
 4519WAT      O27507   0.512   3.705   2.196
 4519WAT     H127508   0.434   3.722   2.145
 4519WAT     H227509   0.553   3.629   2.153
 4520WAT      O27510   0.322   3.352  12.091
 4520WAT     H127511   0.278   3.437  12.096
 4520WAT     H227512   0.269   3.295  12.146
 4521WAT      O27513   0.170   5.220   9.416
 4521WAT     H127514   0.129   5.241   9.332
 4521WAT     H227515   0.124   5.141   9.446
 4522WAT      O27516   2.984   0.009   8.098
 4522WAT     H127517   3.052  -0.011   8.162
 4522WAT     H227518   2.931   0.077   8.139
 4523WAT      O27519   0.648   3.019   1.394
 4523WAT     H127520   0.705   2.964   1.448
 4523WAT     H227521   0.606   2.959   1.333
 4524WAT      O27522   0.141   1.243   0.536
 4524WAT     H127523   0.078   1.285   0.595
 4524WAT     H227524   0.225   1.248   0.583
 4525WAT      O27525   2.228   3.056   4.378
 4525WAT     H127526   2.136   3.028   4.370
 4525WAT     H227527   2.248   3.047   4.471
 4526WAT      O27528   2.068   4.109   1.229
 4526WAT     H127529   2.082   4.015   1.232
 4526WAT     H227530   2.048   4.128   1.137
 4527WAT      O27531   0.180   2.296  12.586
 4527WAT     H127532   0.145   2.230  12.527
 4527WAT     H227533   0.133   2.282  12.668
 4528WAT      O27534   0.608   1.561   1.489
 4528WAT     H127535   0.654   1.643   1.471
 4528WAT     H227536   0.555   1.546   1.412
 4529WAT      O27537   5.806   5.693   2.172
 4529WAT     H127538   5.791   5.783   2.145
 4529WAT     H227539   5.752   5.641   2.113
 4530WAT      O27540   3.192   2.001   0.360
 4530WAT     H127541   3.268   1.943   0.364
 4530WAT     H227542   3.118   1.943   0.344
 4531WAT      O27543   3.850   5.441   0.499
 4531WAT     H127544   3.940   5.446   0.468
 4531WAT     H227545   3.826   5.348   0.489
 4532WAT      O27546   1.197   5.389   3.144
 4532WAT     H127547   1.217   5.461   3.203
 4532WAT     H227548   1.267   5.326   3.158
 4533WAT      O27549   1.025   3.940  10.231
 4533WAT     H127550   0.979   3.861  10.202
 4533WAT     H227551   0.971   3.973  10.303
 4534WAT      O27552   1.113   3.625   3.055
 4534WAT     H127553   1.083   3.659   3.140
 4534WAT     H227554   1.032   3.613   3.005
 4535WAT      O27555   5.785   3.691   0.832
 4535WAT     H127556   5.813   3.706   0.742
 4535WAT     H227557   5.702   3.737   0.840
 4536WAT      O27558   3.278   4.546  10.084
 4536WAT     H127559   3.312   4.489  10.015
 4536WAT     H227560   3.337   4.620  10.087
 4537WAT      O27561   6.174   1.243   7.871
 4537WAT     H127562   6.185   1.338   7.876
 4537WAT     H227563   6.217   1.218   7.790
 4538WAT      O27564   0.618   2.858  11.460
 4538WAT     H127565   0.613   2.766  11.435
 4538WAT     H227566   0.537   2.896  11.426
 4539WAT      O27567   0.646   1.749   8.085
 4539WAT     H127568   0.705   1.696   8.031
 4539WAT     H227569   0.611   1.814   8.024
 4540WAT      O27570   4.458   5.144  12.437
 4540WAT     H127571   4.386   5.206  12.429
 4540WAT     H227572   4.416   5.061  12.460
 4541WAT      O27573   3.788   1.969   9.504
 4541WAT     H127574   3.747   2.043   9.549
 4541WAT     H227575   3.877   1.998   9.486
 4542WAT      O27576   3.685   2.836  10.372
 4542WAT     H127577   3.741   2.898  10.419
 4542WAT     H227578   3.710   2.846  10.280
 4543WAT      O27579   0.778   0.052   2.506
 4543WAT     H127580   0.764   0.038   2.600
 4543WAT     H227581   0.832  -0.022   2.478
 4544WAT      O27582   1.085   0.310   2.311
 4544WAT     H127583   1.026   0.382   2.336
 4544WAT     H227584   1.050   0.278   2.227
 4545WAT      O27585   6.111   3.157  10.484
 4545WAT     H127586   6.168   3.182  10.412
 4545WAT     H227587   6.149   3.077  10.519
 4546WAT      O27588   2.008   3.921  10.007
 4546WAT     H127589   1.924   3.910   9.962
 4546WAT     H227590   2.021   4.016  10.010
 4547WAT      O27591   1.633   0.370  11.837
 4547WAT     H127592   1.605   0.326  11.918
 4547WAT     H227593   1.647   0.298  11.775
 4548WAT      O27594   2.736   5.519   2.161
 4548WAT     H127595   2.680   5.517   2.238
 4548WAT     H227596   2.688   5.573   2.098
 4549WAT      O27597   0.242   6.031   1.582
 4549WAT     H127598   0.228   6.045   1.488
 4549WAT     H227599   0.209   5.943   1.598
 4550WAT      O27600   4.222  -0.021   2.052
 4550WAT     H127601   4.265  -0.008   2.137
 4550WAT     H227602   4.268   0.039   1.993
 4551WAT      O27603   0.175   0.393  11.267
 4551WAT     H127604   0.210   0.346  11.192
 4551WAT     H227605   0.086   0.416  11.243
 4552WAT      O27606   0.154   3.603   8.545
 4552WAT     H127607   0.096   3.630   8.474
 4552WAT     H227608   0.216   3.543   8.503
 4553WAT      O27609   2.108   4.989   9.494
 4553WAT     H127610   2.071   4.902   9.507
 4553WAT     H227611   2.201   4.972   9.478
 4554WAT      O27612   1.624   1.547   9.801
 4554WAT     H127613   1.696   1.537   9.738
 4554WAT     H227614   1.563   1.477   9.779
 4555WAT      O27615   3.274   4.481   9.258
 4555WAT     H127616   3.185   4.495   9.228
 4555WAT     H227617   3.296   4.393   9.227
 4556WAT      O27618   4.088   0.352  10.580
 4556WAT     H127619   3.997   0.336  10.557
 4556WAT     H227620   4.086   0.436  10.627
 4557WAT      O27621   1.426   5.442   5.105
 4557WAT     H127622   1.438   5.433   5.199
 4557WAT     H227623   1.366   5.516   5.095
 4558WAT      O27624   4.613   0.782  10.958
 4558WAT     H127625   4.606   0.842  11.033
 4558WAT     H227626   4.586   0.697  10.993
 4559WAT      O27627   0.767   3.123   0.721
 4559WAT     H127628   0.737   3.117   0.630
 4559WAT     H227629   0.763   3.216   0.741
 4560WAT      O27630   3.455   2.749   8.463
 4560WAT     H127631   3.376   2.777   8.508
 4560WAT     H227632   3.433   2.753   8.370
 4561WAT      O27633   5.097   4.330   2.801
 4561WAT     H127634   5.172   4.272   2.787
 4561WAT     H227635   5.041   4.317   2.725
 4562WAT      O27636   4.603   2.955   8.622
 4562WAT     H127637   4.637   2.893   8.558
 4562WAT     H227638   4.640   2.926   8.705
 4563WAT      O27639   4.260   4.911   3.951
 4563WAT     H127640   4.331   4.972   3.969
 4563WAT     H227641   4.193   4.932   4.017
 4564WAT      O27642   3.774   3.279   3.830
 4564WAT     H127643   3.786   3.185   3.844
 4564WAT     H227644   3.829   3.299   3.754
 4565WAT      O27645   1.988   2.622   0.743
 4565WAT     H127646   1.896   2.610   0.719
 4565WAT     H227647   1.986   2.650   0.835
 4566WAT      O27648   4.476   6.117  11.012
 4566WAT     H127649   4.538   6.044  11.020
 4566WAT     H227650   4.453   6.139  11.102
 4567WAT      O27651   1.430   0.034   3.240
 4567WAT     H127652   1.358   0.048   3.301
 4567WAT     H227653   1.433   0.115   3.189
 4568WAT      O27654   5.120   1.329  11.553
 4568WAT     H127655   5.119   1.234  11.550
 4568WAT     H227656   5.213   1.352  11.563
 4569WAT      O27657   5.285   4.691  11.680
 4569WAT     H127658   5.219   4.625  11.703
 4569WAT     H227659   5.234   4.769  11.659
 4570WAT      O27660   4.257   5.741   2.517
 4570WAT     H127661   4.336   5.794   2.503
 4570WAT     H227662   4.283   5.678   2.584
 4571WAT      O27663   1.392   1.225  10.747
 4571WAT     H127664   1.334   1.158  10.783
 4571WAT     H227665   1.335   1.283  10.698
 4572WAT      O27666   1.915   4.914   1.200
 4572WAT     H127667   1.836   4.932   1.150
 4572WAT     H227668   1.955   4.839   1.155
 4573WAT      O27669   4.800   1.723   4.557
 4573WAT     H127670   4.725   1.689   4.607
 4573WAT     H227671   4.863   1.651   4.557
 4574WAT      O27672   2.769   5.793  12.270
 4574WAT     H127673   2.727   5.710  12.293
 4574WAT     H227674   2.863   5.775  12.277
 4575WAT      O27675   2.531   1.187  11.624
 4575WAT     H127676   2.496   1.273  11.645
 4575WAT     H227677   2.480   1.126  11.678
 4576WAT      O27678   5.607   0.616   9.901
 4576WAT     H127679   5.679   0.575   9.948
 4576WAT     H227680   5.612   0.708   9.924
 4577WAT      O27681   1.191   4.452   1.854
 4577WAT     H127682   1.192   4.441   1.949
 4577WAT     H227683   1.107   4.415   1.826
 4578WAT      O27684   3.745   4.409   7.864
 4578WAT     H127685   3.695   4.443   7.789
 4578WAT     H227686   3.720   4.466   7.937
 4579WAT      O27687   1.887   6.107   8.164
 4579WAT     H127688   1.976   6.072   8.159
 4579WAT     H227689   1.893   6.193   8.123
 4580WAT      O27690   4.639   4.714   2.763
 4580WAT     H127691   4.689   4.789   2.795
 4580WAT     H227692   4.651   4.646   2.829
 4581WAT      O27693   4.856   3.132   0.841
 4581WAT     H127694   4.830   3.044   0.868
 4581WAT     H227695   4.946   3.141   0.870
 4582WAT      O27696   4.946   2.716  11.893
 4582WAT     H127697   4.975   2.731  11.983
 4582WAT     H227698   4.893   2.793  11.872
 4583WAT      O27699   0.676   4.581   8.808
 4583WAT     H127700   0.767   4.551   8.819
 4583WAT     H227701   0.624   4.501   8.819
 4584WAT      O27702   4.700   4.281   8.278
 4584WAT     H127703   4.638   4.264   8.207
 4584WAT     H227704   4.720   4.195   8.315
 4585WAT      O27705   4.119   5.617   4.208
 4585WAT     H127706   4.106   5.665   4.126
 4585WAT     H227707   4.172   5.541   4.183
 4586WAT      O27708   3.696   3.956   8.202
 4586WAT     H127709   3.711   4.035   8.150
 4586WAT     H227710   3.618   3.975   8.254
 4587WAT      O27711   5.716   0.961  10.952
 4587WAT     H127712   5.781   0.998  10.893
 4587WAT     H227713   5.689   0.879  10.909
 4588WAT      O27714   1.530   1.186   2.630
 4588WAT     H127715   1.539   1.093   2.612
 4588WAT     H227716   1.612   1.211   2.672
 4589WAT      O27717   2.141   2.209   4.163
 4589WAT     H127718   2.098   2.184   4.245
 4589WAT     H227719   2.229   2.235   4.190
 4590WAT      O27720   3.619   2.889   4.586
 4590WAT     H127721   3.615   2.818   4.649
 4590WAT     H227722   3.626   2.846   4.501
 4591WAT      O27723   3.277   1.797  11.672
 4591WAT     H127724   3.292   1.887  11.642
 4591WAT     H227725   3.182   1.790  11.678
 4592WAT      O27726   1.725   1.625   2.304
 4592WAT     H127727   1.718   1.635   2.209
 4592WAT     H227728   1.757   1.535   2.316
 4593WAT      O27729   1.916   4.791   2.337
 4593WAT     H127730   1.931   4.727   2.407
 4593WAT     H227731   1.878   4.740   2.266
 4594WAT      O27732   0.811   3.521  12.542
 4594WAT     H127733   0.768   3.454  12.595
 4594WAT     H227734   0.892   3.480  12.513
 4595WAT      O27735   0.555   2.615   8.212
 4595WAT     H127736   0.644   2.634   8.243
 4595WAT     H227737   0.501   2.621   8.291
 4596WAT      O27738   3.098   2.912   2.252
 4596WAT     H127739   3.016   2.933   2.207
 4596WAT     H227740   3.165   2.922   2.184
 4597WAT      O27741   4.175   0.139   2.541
 4597WAT     H127742   4.098   0.196   2.537
 4597WAT     H227743   4.159   0.081   2.614
 4598WAT      O27744   3.131   0.373   8.497
 4598WAT     H127745   3.065   0.439   8.474
 4598WAT     H227746   3.080   0.294   8.515
 4599WAT      O27747   3.626   5.088   8.778
 4599WAT     H127748   3.696   5.039   8.734
 4599WAT     H227749   3.629   5.058   8.868
 4600WAT      O27750   5.044   0.897  11.803
 4600WAT     H127751   4.950   0.890  11.788
 4600WAT     H227752   5.062   0.833  11.871
 4601WAT      O27753   1.983   6.041  11.062
 4601WAT     H127754   1.987   6.044  10.966
 4601WAT     H227755   2.023   6.123  11.090
 4602WAT      O27756   0.147   2.771   0.815
 4602WAT     H127757   0.237   2.743   0.833
 4602WAT     H227758   0.106   2.695   0.774
 4603WAT      O27759   3.552   5.037   0.711
 4603WAT     H127760   3.587   4.962   0.759
 4603WAT     H227761   3.587   5.113   0.757
 4604WAT      O27762   4.043   4.692  11.077
 4604WAT     H127763   4.023   4.683  10.984
 4604WAT     H227764   4.013   4.780  11.100
 4605WAT      O27765   5.025   1.199   0.210
 4605WAT     H127766   4.988   1.270   0.263
 4605WAT     H227767   4.991   1.119   0.251
 4606WAT      O27768   3.282   2.212   1.570
 4606WAT     H127769   3.188   2.204   1.584
 4606WAT     H227770   3.316   2.248   1.652
 4607WAT      O27771   2.693   3.266  10.105
 4607WAT     H127772   2.696   3.350  10.058
 4607WAT     H227773   2.759   3.276  10.174
 4608WAT      O27774   4.834   2.024   9.535
 4608WAT     H127775   4.741   2.043   9.521
 4608WAT     H227776   4.880   2.094   9.489
 4609WAT      O27777   3.717   0.525  12.402
 4609WAT     H127778   3.808   0.553  12.397
 4609WAT     H227779   3.703   0.476  12.321
 4610WAT      O27780   3.353   0.255   1.779
 4610WAT     H127781   3.418   0.267   1.849
 4610WAT     H227782   3.281   0.313   1.804
 4611WAT      O27783   5.724   4.412   3.072
 4611WAT     H127784   5.771   4.484   3.113
 4611WAT     H227785   5.792   4.351   3.044
 4612WAT      O27786   6.063   3.283   1.128
 4612WAT     H127787   6.102   3.356   1.176
 4612WAT     H227788   5.986   3.321   1.085
 4613WAT      O27789   4.533   0.684   9.497
 4613WAT     H127790   4.459   0.716   9.548
 4613WAT     H227791   4.611   0.712   9.545
 4614WAT      O27792   0.324   2.863   8.932
 4614WAT     H127793   0.389   2.889   8.867
 4614WAT     H227794   0.244   2.907   8.905
 4615WAT      O27795   3.248   0.747   2.197
 4615WAT     H127796   3.239   0.653   2.181
 4615WAT     H227797   3.305   0.753   2.274
 4616WAT      O27798   1.731   2.071  11.682
 4616WAT     H127799   1.663   2.077  11.750
 4616WAT     H227800   1.690   2.020  11.612
 4617WAT      O27801   2.827   4.878  12.391
 4617WAT     H127802   2.809   4.936  12.465
 4617WAT     H227803   2.909   4.912  12.354
 4618WAT      O27804   0.923   6.025   9.506
 4618WAT     H127805   0.998   6.080   9.485
 4618WAT     H227806   0.880   6.071   9.579
 4619WAT      O27807   2.559   2.746   0.914
 4619WAT     H127808   2.635   2.754   0.856
 4619WAT     H227809   2.511   2.671   0.880
 4620WAT      O27810   6.127   4.505   9.210
 4620WAT     H127811   6.065   4.493   9.281
 4620WAT     H227812   6.174   4.422   9.205
 4621WAT      O27813   3.634   3.436  10.399
 4621WAT     H127814   3.595   3.523  10.409
 4621WAT     H227815   3.601   3.386  10.473
 4622WAT      O27816   3.517   3.329  10.641
 4622WAT     H127817   3.439   3.377  10.669
 4622WAT     H227818   3.514   3.247  10.692
 4623WAT      O27819   3.223   3.936  10.746
 4623WAT     H127820   3.247   3.986  10.824
 4623WAT     H227821   3.166   3.866  10.780
 4624WAT      O27822   4.092   0.627   2.383
 4624WAT     H127823   4.120   0.644   2.473
 4624WAT     H227824   4.067   0.535   2.382
 4625WAT      O27825   0.104   2.269   9.081
 4625WAT     H127826   0.032   2.217   9.046
 4625WAT     H227827   0.121   2.335   9.014
 4626WAT      O27828   1.420   3.573   3.836
 4626WAT     H127829   1.509   3.585   3.868
 4626WAT     H227830   1.371   3.645   3.875
 4627WAT      O27831   5.989   2.405   2.740
 4627WAT     H127832   5.971   2.482   2.796
 4627WAT     H227833   5.951   2.332   2.788
 4628WAT      O27834   2.733   3.520   2.425
 4628WAT     H127835   2.749   3.607   2.463
 4628WAT     H227836   2.800   3.511   2.357
 4629WAT      O27837   3.284   3.829   1.254
 4629WAT     H127838   3.330   3.910   1.276
 4629WAT     H227839   3.346   3.780   1.200
 4630WAT      O27840   4.569   4.738   4.256
 4630WAT     H127841   4.475   4.756   4.254
 4630WAT     H227842   4.608   4.817   4.293
 4631WAT      O27843   4.726   4.652   3.580
 4631WAT     H127844   4.679   4.719   3.532
 4631WAT     H227845   4.804   4.696   3.613
 4632WAT      O27846   5.605   3.639  11.935
 4632WAT     H127847   5.613   3.652  12.029
 4632WAT     H227848   5.692   3.611  11.906
 4633WAT      O27849   3.947   4.012  11.340
 4633WAT     H127850   4.040   4.014  11.364
 4633WAT     H227851   3.947   4.006  11.244
 4634WAT      O27852   3.932   1.564   9.923
 4634WAT     H127853   3.924   1.596   9.833
 4634WAT     H227854   4.023   1.536   9.930
 4635WAT      O27855   3.507   4.361   0.381
 4635WAT     H127856   3.459   4.412   0.315
 4635WAT     H227857   3.463   4.382   0.463
 4636WAT      O27858   6.123   2.685   9.238
 4636WAT     H127859   6.040   2.731   9.224
 4636WAT     H227860   6.184   2.753   9.266
 4637WAT      O27861   5.293   0.818   2.264
 4637WAT     H127862   5.362   0.863   2.313
 4637WAT     H227863   5.300   0.726   2.292
 4638WAT      O27864   4.901   0.978   0.295
 4638WAT     H127865   4.826   1.035   0.311
 4638WAT     H227866   4.869   0.913   0.232
 4639WAT      O27867   1.037   1.516   9.503
 4639WAT     H127868   0.962   1.457   9.489
 4639WAT     H227869   1.107   1.479   9.450
 4640WAT      O27870   2.251   2.064   2.376
 4640WAT     H127871   2.166   2.106   2.375
 4640WAT     H227872   2.255   2.012   2.296
 4641WAT      O27873   1.382   1.755  11.828
 4641WAT     H127874   1.329   1.757  11.908
 4641WAT     H227875   1.378   1.663  11.799
 4642WAT      O27876   4.682   3.755   0.773
 4642WAT     H127877   4.723   3.766   0.859
 4642WAT     H227878   4.660   3.662   0.768
 4643WAT      O27879   2.792   4.786   2.298
 4643WAT     H127880   2.746   4.705   2.279
 4643WAT     H227881   2.735   4.855   2.263
 4644WAT      O27882   1.101   4.074   4.934
 4644WAT     H127883   1.163   4.145   4.953
 4644WAT     H227884   1.120   4.049   4.843
 4645WAT      O27885   4.730   4.979   4.314
 4645WAT     H127886   4.721   5.011   4.224
 4645WAT     H227887   4.824   4.965   4.326
 4646WAT      O27888   5.287   5.917   0.081
 4646WAT     H127889   5.354   5.849   0.090
 4646WAT     H227890   5.292   5.967   0.162
 4647WAT      O27891   2.410   3.247   3.972
 4647WAT     H127892   2.357   3.284   4.042
 4647WAT     H227893   2.409   3.153   3.987
 4648WAT      O27894   1.077   2.279  11.450
 4648WAT     H127895   1.106   2.346  11.388
 4648WAT     H227896   1.079   2.198  11.400
 4649WAT      O27897   3.455   5.423   0.730
 4649WAT     H127898   3.449   5.415   0.825
 4649WAT     H227899   3.548   5.411   0.710
 4650WAT      O27900   1.979   1.932   9.566
 4650WAT     H127901   2.027   2.014   9.581
 4650WAT     H227902   1.998   1.910   9.474
 4651WAT      O27903   4.735   1.514   8.133
 4651WAT     H127904   4.731   1.536   8.226
 4651WAT     H227905   4.670   1.444   8.123
 4652WAT      O27906   1.126   0.804   4.029
 4652WAT     H127907   1.197   0.740   4.025
 4652WAT     H227908   1.073   0.776   4.104
 4653WAT      O27909   1.077   2.526   2.859
 4653WAT     H127910   1.080   2.620   2.844
 4653WAT     H227911   1.118   2.488   2.782
 4654WAT      O27912   2.077   3.018  11.144
 4654WAT     H127913   2.031   2.991  11.065
 4654WAT     H227914   2.060   3.112  11.151
 4655WAT      O27915   0.921   5.166  12.589
 4655WAT     H127916   0.870   5.165  12.670
 4655WAT     H227917   0.860   5.134  12.522
 4656WAT      O27918   4.972   3.622   2.213
 4656WAT     H127919   4.901   3.686   2.212
 4656WAT     H227920   4.986   3.600   2.121
 4657WAT      O27921   2.668   4.883   9.287
 4657WAT     H127922   2.672   4.811   9.350
 4657WAT     H227923   2.586   4.869   9.240
 4658WAT      O27924   3.727   0.520   1.752
 4658WAT     H127925   3.811   0.535   1.795
 4658WAT     H227926   3.679   0.602   1.764
 4659WAT      O27927   3.417   5.588   9.189
 4659WAT     H127928   3.491   5.603   9.248
 4659WAT     H227929   3.458   5.556   9.108
 4660WAT      O27930   4.196   2.404  12.029
 4660WAT     H127931   4.120   2.355  12.059
 4660WAT     H227932   4.267   2.340  12.028
 4661WAT      O27933   0.797   1.967   9.636
 4661WAT     H127934   0.892   1.959   9.639
 4661WAT     H227935   0.777   1.989   9.545
 4662WAT      O27936   0.628   3.228  12.354
 4662WAT     H127937   0.718   3.256  12.335
 4662WAT     H227938   0.591   3.208  12.268
 4663WAT      O27939   3.272   3.908   8.803
 4663WAT     H127940   3.252   3.911   8.709
 4663WAT     H227941   3.325   3.829   8.814
 4664WAT      O27942   5.372   2.946   8.933
 4664WAT     H127943   5.338   2.872   8.883
 4664WAT     H227944   5.302   3.011   8.931
 4665WAT      O27945   5.548   4.036   3.610
 4665WAT     H127946   5.459   4.005   3.595
 4665WAT     H227947   5.575   3.994   3.692
 4666WAT      O27948   0.003   2.914   3.550
 4666WAT     H127949   0.079   2.950   3.505
 4666WAT     H227950   0.032   2.903   3.641
 4667WAT      O27951   1.929   2.824  12.629
 4667WAT     H127952   1.950   2.912  12.663
 4667WAT     H227953   1.883   2.840  12.547
 4668WAT      O27954   2.814   1.084  11.823
 4668WAT     H127955   2.862   1.089  11.905
 4668WAT     H227956   2.765   1.166  11.818
 4669WAT      O27957   4.593   2.835   0.413
 4669WAT     H127958   4.629   2.761   0.461
 4669WAT     H227959   4.523   2.867   0.470
 4670WAT      O27960   1.720   4.115   1.829
 4670WAT     H127961   1.649   4.087   1.771
 4670WAT     H227962   1.747   4.034   1.873
 4671WAT      O27963   4.992   2.015  10.513
 4671WAT     H127964   5.036   1.942  10.557
 4671WAT     H227965   5.061   2.058  10.463
 4672WAT      O27966   2.778   3.925  11.372
 4672WAT     H127967   2.856   3.975  11.395
 4672WAT     H227968   2.705   3.974  11.409
 4673WAT      O27969   4.400   1.512   4.122
 4673WAT     H127970   4.336   1.556   4.178
 4673WAT     H227971   4.376   1.419   4.128
 4674WAT      O27972   1.956   2.242   9.569
 4674WAT     H127973   1.920   2.295   9.499
 4674WAT     H227974   1.885   2.237   9.634
 4675WAT      O27975   2.121   1.220   2.481
 4675WAT     H127976   2.182   1.183   2.416
 4675WAT     H227977   2.066   1.147   2.507
 4676WAT      O27978   0.124   1.833   1.953
 4676WAT     H127979   0.050   1.777   1.929
 4676WAT     H227980   0.174   1.780   2.016
 4677WAT      O27981   4.175   5.383  10.426
 4677WAT     H127982   4.120   5.313  10.461
 4677WAT     H227983   4.236   5.339  10.367
 4678WAT      O27984   1.528   0.050  12.524
 4678WAT     H127985   1.534   0.001  12.442
 4678WAT     H227986   1.459   0.115  12.508
 4679WAT      O27987   0.349   2.385   7.887
 4679WAT     H127988   0.383   2.304   7.925
 4679WAT     H227989   0.281   2.357   7.826
 4680WAT      O27990   1.085   0.015  12.631
 4680WAT     H127991   1.095   0.058  12.716
 4680WAT     H227992   1.173  -0.011  12.606
 4681WAT      O27993   1.692   3.096   2.445
 4681WAT     H127994   1.647   3.174   2.479
 4681WAT     H227995   1.765   3.082   2.505
 4682WAT      O27996   4.867   0.129  10.303
 4682WAT     H127997   4.854   0.220  10.327
 4682WAT     H227998   4.779   0.092  10.299
 4683WAT      O27999   1.319   4.759   0.077
 4683WAT     H128000   1.282   4.689   0.131
 4683WAT     H228001   1.311   4.838   0.131
 4684WAT      O28002   2.185   0.001  11.110
 4684WAT     H128003   2.143   0.080  11.144
 4684WAT     H228004   2.193  -0.057  11.186
 4685WAT      O28005   1.364   6.183  11.663
 4685WAT     H128006   1.372   6.118  11.733
 4685WAT     H228007   1.315   6.139  11.594
 4686WAT      O28008   4.351   5.361   2.178
 4686WAT     H128009   4.403   5.349   2.257
 4686WAT     H228010   4.406   5.416   2.121
 4687WAT      O28011   1.145   2.019  12.106
 4687WAT     H128012   1.161   2.091  12.046
 4687WAT     H228013   1.180   2.049  12.190
 4688WAT      O28014   1.941   6.117  11.864
 4688WAT     H128015   1.979   6.043  11.911
 4688WAT     H228016   1.887   6.161  11.930
 4689WAT      O28017   5.428   0.387   3.156
 4689WAT     H128018   5.346   0.436   3.154
 4689WAT     H228019   5.421   0.331   3.233
 4690WAT      O28020   1.426   4.355   1.721
 4690WAT     H128021   1.339   4.381   1.752
 4690WAT     H228022   1.433   4.262   1.742
 4691WAT      O28023   6.262   4.664  11.012
 4691WAT     H128024   6.253   4.602  10.940
 4691WAT     H228025   6.190   4.725  11.000
 4692WAT      O28026   6.167   0.460   9.755
 4692WAT     H128027   6.094   0.504   9.711
 4692WAT     H228028   6.129   0.379   9.789
 4693WAT      O28029   3.875   5.290   8.128
 4693WAT     H128030   3.913   5.361   8.180
 4693WAT     H228031   3.822   5.334   8.061
 4694WAT      O28032   5.705   0.304  12.106
 4694WAT     H128033   5.661   0.382  12.141
 4694WAT     H228034   5.725   0.327  12.015
 4695WAT      O28035   3.960   5.788   9.827
 4695WAT     H128036   3.975   5.882   9.834
 4695WAT     H228037   3.869   5.781   9.796
 4696WAT      O28038   1.989   2.641  10.815
 4696WAT     H128039   1.976   2.670  10.905
 4696WAT     H228040   2.008   2.547  10.822
 4697WAT      O28041   3.970   1.137   3.714
 4697WAT     H128042   3.910   1.204   3.683
 4697WAT     H228043   3.969   1.070   3.645
 4698WAT      O28044   6.168   4.615   0.476
 4698WAT     H128045   6.210   4.609   0.391
 4698WAT     H228046   6.203   4.541   0.526
 4699WAT      O28047   5.116   0.553   1.895
 4699WAT     H128048   5.109   0.528   1.987
 4699WAT     H228049   5.076   0.640   1.890
 4700WAT      O28050   2.770   1.811  11.469
 4700WAT     H128051   2.855   1.807  11.426
 4700WAT     H228052   2.743   1.719  11.478
 4701WAT      O28053   5.466   2.512   0.094
 4701WAT     H128054   5.392   2.571   0.110
 4701WAT     H228055   5.469   2.455   0.170
 4702WAT      O28056   4.107   1.471   1.596
 4702WAT     H128057   4.063   1.386   1.585
 4702WAT     H228058   4.055   1.532   1.544
 4703WAT      O28059   0.854   3.664   4.343
 4703WAT     H128060   0.906   3.744   4.349
 4703WAT     H228061   0.793   3.669   4.416
 4704WAT      O28062   4.503   5.091   0.623
 4704WAT     H128063   4.488   5.175   0.580
 4704WAT     H228064   4.494   5.111   0.717
 4705WAT      O28065   5.948   0.752   9.950
 4705WAT     H128066   6.028   0.700   9.947
 4705WAT     H228067   5.879   0.691   9.923
 4706WAT      O28068   1.048   0.607  10.663
 4706WAT     H128069   0.991   0.532  10.648
 4706WAT     H228070   1.120   0.573  10.716
 4707WAT      O28071   0.210   5.681   1.454
 4707WAT     H128072   0.115   5.683   1.464
 4707WAT     H228073   0.229   5.593   1.422
 4708WAT      O28074   1.482   3.565   9.199
 4708WAT     H128075   1.494   3.470   9.202
 4708WAT     H228076   1.461   3.584   9.108
 4709WAT      O28077   4.670   3.433  12.099
 4709WAT     H128078   4.666   3.523  12.068
 4709WAT     H228079   4.728   3.436  12.176
 4710WAT      O28080   6.063   1.842   0.368
 4710WAT     H128081   6.075   1.836   0.273
 4710WAT     H228082   6.118   1.916   0.394
 4711WAT      O28083   1.437   5.478   2.893
 4711WAT     H128084   1.343   5.467   2.880
 4711WAT     H228085   1.454   5.570   2.874
 4712WAT      O28086   4.214   2.522   1.282
 4712WAT     H128087   4.254   2.439   1.258
 4712WAT     H228088   4.121   2.502   1.291
 4713WAT      O28089   1.397   1.046   3.555
 4713WAT     H128090   1.359   1.119   3.605
 4713WAT     H228091   1.487   1.072   3.540
 4714WAT      O28092   2.156   4.770   3.454
 4714WAT     H128093   2.115   4.827   3.520
 4714WAT     H228094   2.160   4.685   3.496
 4715WAT      O28095   1.527   1.705   3.570
 4715WAT     H128096   1.446   1.742   3.536
 4715WAT     H228097   1.550   1.636   3.507
 4716WAT      O28098   0.376   3.036  12.510
 4716WAT     H128099   0.384   3.024  12.605
 4716WAT     H228100   0.384   3.131  12.497
 4717WAT      O28101   3.804   3.138   8.792
 4717WAT     H128102   3.782   3.193   8.867
 4717WAT     H228103   3.899   3.149   8.782
 4718WAT      O28104   0.618   3.394  11.533
 4718WAT     H128105   0.636   3.337  11.608
 4718WAT     H228106   0.665   3.353  11.460
 4719WAT      O28107   4.393   2.275   0.689
 4719WAT     H128108   4.359   2.203   0.744
 4719WAT     H228109   4.348   2.353   0.722
 4720WAT      O28110   3.567   6.084   8.817
 4720WAT     H128111   3.527   6.002   8.846
 4720WAT     H228112   3.658   6.080   8.847
 4721WAT      O28113   1.962   3.093   9.193
 4721WAT     H128114   2.036   3.115   9.136
 4721WAT     H228115   1.940   3.003   9.170
 4722WAT      O28116   5.114   1.417   1.575
 4722WAT     H128117   5.161   1.499   1.588
 4722WAT     H228118   5.023   1.439   1.596
 4723WAT      O28119   5.894   5.861   9.897
 4723WAT     H128120   5.873   5.954   9.904
 4723WAT     H228121   5.819   5.824   9.850
 4724WAT      O28122   2.617   3.882   9.159
 4724WAT     H128123   2.526   3.911   9.148
 4724WAT     H228124   2.665   3.961   9.181
 4725WAT      O28125   0.594   0.739  12.326
 4725WAT     H128126   0.620   0.687  12.402
 4725WAT     H228127   0.610   0.681  12.251
 4726WAT      O28128   6.042   2.623   1.362
 4726WAT     H128129   6.040   2.528   1.352
 4726WAT     H228130   6.060   2.656   1.274
 4727WAT      O28131   6.210   1.116   4.198
 4727WAT     H128132   6.166   1.042   4.238
 4727WAT     H228133   6.171   1.193   4.239
 4728WAT      O28134   4.795   2.748  12.446
 4728WAT     H128135   4.742   2.807  12.499
 4728WAT     H228136   4.884   2.757  12.481
 4729WAT      O28137   3.163   0.919   8.390
 4729WAT     H128138   3.147   0.942   8.482
 4729WAT     H228139   3.078   0.927   8.348
 4730WAT      O28140   5.246   3.380   3.002
 4730WAT     H128141   5.314   3.356   3.066
 4730WAT     H228142   5.226   3.299   2.957
 4731WAT      O28143   4.818   4.364  10.935
 4731WAT     H128144   4.769   4.300  10.884
 4731WAT     H228145   4.888   4.393  10.876
 4732WAT      O28146   3.960   3.017   4.619
 4732WAT     H128147   3.966   3.105   4.581
 4732WAT     H228148   4.015   3.021   4.697
 4733WAT      O28149   4.738   0.256   9.862
 4733WAT     H128150   4.650   0.289   9.880
 4733WAT     H228151   4.759   0.288   9.775
 4734WAT      O28152   3.939   2.950   8.199
 4734WAT     H128153   3.984   2.881   8.248
 4734WAT     H228154   3.853   2.914   8.179
 4735WAT      O28155   2.701   0.760   8.619
 4735WAT     H128156   2.719   0.829   8.683
 4735WAT     H228157   2.637   0.703   8.663
 4736WAT      O28158   3.136   6.223   8.925
 4736WAT     H128159   3.187   6.149   8.958
 4736WAT     H228160   3.049   6.186   8.908
 4737WAT      O28161   5.820   0.388   8.651
 4737WAT     H128162   5.848   0.383   8.743
 4737WAT     H228163   5.902   0.397   8.602
 4738WAT      O28164   0.754   3.712   3.153
 4738WAT     H128165   0.774   3.770   3.226
 4738WAT     H228166   0.764   3.767   3.075
 4739WAT      O28167   2.915   4.722  11.287
 4739WAT     H128168   2.993   4.777  11.291
 4739WAT     H228169   2.843   4.781  11.307
 4740WAT      O28170   5.960   0.193   9.750
 4740WAT     H128171   5.883   0.249   9.741
 4740WAT     H228172   5.929   0.106   9.725
 4741WAT      O28173   3.598   4.075   9.931
 4741WAT     H128174   3.563   4.061   9.843
 4741WAT     H228175   3.603   3.988   9.969
 4742WAT      O28176   2.472   1.417   7.860
 4742WAT     H128177   2.470   1.507   7.827
 4742WAT     H228178   2.406   1.416   7.929
 4743WAT      O28179   1.847   6.191   8.565
 4743WAT     H128180   1.896   6.119   8.524
 4743WAT     H228181   1.760   6.187   8.523
 4744WAT      O28182   6.028   5.081   4.350
 4744WAT     H128183   5.991   5.025   4.419
 4744WAT     H228184   6.097   5.131   4.394
 4745WAT      O28185   2.499   2.844   1.488
 4745WAT     H128186   2.567   2.832   1.421
 4745WAT     H228187   2.535   2.800   1.565
 4746WAT      O28188   3.903   4.363   0.456
 4746WAT     H128189   3.837   4.422   0.420
 4746WAT     H228190   3.853   4.294   0.499
 4747WAT      O28191   1.428   1.472  11.778
 4747WAT     H128192   1.493   1.403  11.792
 4747WAT     H228193   1.382   1.445  11.699
 4748WAT      O28194   1.713   4.662   0.907
 4748WAT     H128195   1.805   4.674   0.929
 4748WAT     H228196   1.711   4.666   0.811
 4749WAT      O28197   0.193   0.319   2.019
 4749WAT     H128198   0.168   0.404   2.055
 4749WAT     H228199   0.117   0.263   2.034
 4750WAT      O28200   5.901   3.715  10.454
 4750WAT     H128201   5.928   3.674  10.536
 4750WAT     H228202   5.866   3.643  10.402
 4751WAT      O28203   1.467   5.446  10.124
 4751WAT     H128204   1.385   5.493  10.137
 4751WAT     H228205   1.465   5.417  10.033
 4752WAT      O28206   2.255   6.214   2.359
 4752WAT     H128207   2.226   6.247   2.444
 4752WAT     H228208   2.187   6.152   2.332
 4753WAT      O28209   2.582   4.546   8.719
 4753WAT     H128210   2.632   4.509   8.646
 4753WAT     H228211   2.627   4.516   8.797
 4754WAT      O28212   0.993   5.475  10.058
 4754WAT     H128213   0.905   5.449  10.085
 4754WAT     H228214   1.016   5.415   9.987
 4755WAT      O28215   1.708   4.461   1.477
 4755WAT     H128216   1.751   4.377   1.461
 4755WAT     H228217   1.743   4.519   1.409
 4756WAT      O28218   3.091   0.725   9.535
 4756WAT     H128219   3.008   0.729   9.582
 4756WAT     H228220   3.154   0.694   9.600
 4757WAT      O28221   5.825   3.934   4.113
 4757WAT     H128222   5.827   3.866   4.180
 4757WAT     H228223   5.735   3.935   4.082
 4758WAT      O28224   0.025   4.736  12.209
 4758WAT     H128225  -0.008   4.765  12.293
 4758WAT     H228226   0.120   4.728  12.221
 4759WAT      O28227   5.315   0.782   4.655
 4759WAT     H128228   5.286   0.819   4.739
 4759WAT     H228229   5.378   0.714   4.680
 4760WAT      O28230   5.992   3.028   2.585
 4760WAT     H128231   5.949   2.944   2.575
 4760WAT     H228232   5.921   3.091   2.597
 4761WAT      O28233   3.545   4.276   2.352
 4761WAT     H128234   3.487   4.340   2.393
 4761WAT     H228235   3.559   4.310   2.264
 4762WAT      O28236   4.547   6.099  11.608
 4762WAT     H128237   4.548   6.016  11.562
 4762WAT     H228238   4.456   6.113  11.632
 4763WAT      O28239   3.376   2.038  11.596
 4763WAT     H128240   3.471   2.048  11.597
 4763WAT     H228241   3.344   2.111  11.543
 4764WAT      O28242   4.099   2.769   0.639
 4764WAT     H128243   4.093   2.768   0.543
 4764WAT     H228244   4.035   2.704   0.668
 4765WAT      O28245   0.381   2.908   2.265
 4765WAT     H128246   0.310   2.907   2.201
 4765WAT     H228247   0.400   2.815   2.280
 4766WAT      O28248   5.972   2.083  10.957
 4766WAT     H128249   6.065   2.095  10.937
 4766WAT     H228250   5.926   2.128  10.885
 4767WAT      O28251   5.325   2.916  10.628
 4767WAT     H128252   5.251   2.923  10.687
 4767WAT     H228253   5.373   2.839  10.659
 4768WAT      O28254   4.647   2.482   2.020
 4768WAT     H128255   4.684   2.483   2.108
 4768WAT     H228256   4.703   2.541   1.969
 4769WAT      O28257   4.072   2.939   0.851
 4769WAT     H128258   4.085   2.877   0.779
 4769WAT     H228259   3.977   2.954   0.853
 4770WAT      O28260   0.171   1.054   0.805
 4770WAT     H128261   0.234   1.027   0.738
 4770WAT     H228262   0.219   1.116   0.860
 4771WAT      O28263   2.366   4.096   7.998
 4771WAT     H128264   2.355   4.190   8.012
 4771WAT     H228265   2.439   4.071   8.054
 4772WAT      O28266   3.509   4.615   9.216
 4772WAT     H128267   3.443   4.575   9.272
 4772WAT     H228268   3.500   4.569   9.132
 4773WAT      O28269   3.590   4.185   0.169
 4773WAT     H128270   3.529   4.129   0.121
 4773WAT     H228271   3.542   4.211   0.248
 4774WAT      O28272   1.138   4.979  12.082
 4774WAT     H128273   1.107   4.999  12.171
 4774WAT     H228274   1.094   5.044  12.027
 4775WAT      O28275   5.628   1.305  11.787
 4775WAT     H128276   5.561   1.296  11.855
 4775WAT     H228277   5.706   1.332  11.834
 4776WAT      O28278   3.858   3.025  12.025
 4776WAT     H128279   3.928   3.061  11.970
 4776WAT     H228280   3.786   3.087  12.018
 4777WAT      O28281   5.691   2.638   9.868
 4777WAT     H128282   5.748   2.562   9.883
 4777WAT     H228283   5.630   2.637   9.942
 4778WAT      O28284   3.142   1.404  11.193
 4778WAT     H128285   3.184   1.479  11.236
 4778WAT     H228286   3.062   1.441  11.155
 4779WAT      O28287   2.075   5.527  11.464
 4779WAT     H128288   2.097   5.486  11.381
 4779WAT     H228289   2.156   5.571  11.492
 4780WAT      O28290   1.115   2.939  11.991
 4780WAT     H128291   1.024   2.963  12.008
 4780WAT     H228292   1.155   3.020  11.958
 4781WAT      O28293   0.986   5.831  12.192
 4781WAT     H128294   1.022   5.758  12.242
 4781WAT     H228295   0.992   5.906  12.252
 4782WAT      O28296   2.455   2.351   1.780
 4782WAT     H128297   2.544   2.378   1.800
 4782WAT     H228298   2.464   2.284   1.711
 4783WAT      O28299   0.016   1.969   8.624
 4783WAT     H128300   0.040   1.876   8.617
 4783WAT     H228301   0.000   1.995   8.534
 4784WAT      O28302   0.474   0.562   4.640
 4784WAT     H128303   0.468   0.637   4.699
 4784WAT     H228304   0.384   0.535   4.625
 4785WAT      O28305   0.558   1.910   2.618
 4785WAT     H128306   0.494   1.850   2.657
 4785WAT     H228307   0.516   1.939   2.536
 4786WAT      O28308   1.566   2.854   9.401
 4786WAT     H128309   1.640   2.889   9.450
 4786WAT     H228310   1.553   2.915   9.329
 4787WAT      O28311   4.710   4.618   1.702
 4787WAT     H128312   4.780   4.628   1.767
 4787WAT     H228313   4.706   4.704   1.658
 4788WAT      O28314   1.011   3.566   1.605
 4788WAT     H128315   0.934   3.616   1.578
 4788WAT     H228316   1.073   3.576   1.533
 4789WAT      O28317   0.243   2.605   2.753
 4789WAT     H128318   0.222   2.638   2.841
 4789WAT     H228319   0.170   2.548   2.731
 4790WAT      O28320   0.579   3.073   2.179
 4790WAT     H128321   0.624   3.024   2.111
 4790WAT     H228322   0.527   3.008   2.226
 4791WAT      O28323   5.600   0.564   0.271
 4791WAT     H128324   5.647   0.513   0.205
 4791WAT     H228325   5.510   0.565   0.239
 4792WAT      O28326   0.557   3.279   1.384
 4792WAT     H128327   0.619   3.206   1.384
 4792WAT     H228328   0.496   3.259   1.313
 4793WAT      O28329   0.922   5.159   3.864
 4793WAT     H128330   0.869   5.131   3.939
 4793WAT     H228331   1.012   5.157   3.896
 4794WAT      O28332   2.203   1.580   2.144
 4794WAT     H128333   2.154   1.650   2.101
 4794WAT     H228334   2.136   1.519   2.175
 4795WAT      O28335   6.133   1.357   0.400
 4795WAT     H128336   6.221   1.383   0.370
 4795WAT     H228337   6.117   1.274   0.356
 4796WAT      O28338   3.523   2.454   1.358
 4796WAT     H128339   3.527   2.533   1.411
 4796WAT     H228340   3.532   2.382   1.420
 4797WAT      O28341   0.592   5.884   9.760
 4797WAT     H128342   0.505   5.845   9.752
 4797WAT     H228343   0.625   5.853   9.844
 4798WAT      O28344   2.888   2.998   2.108
 4798WAT     H128345   2.799   2.969   2.128
 4798WAT     H228346   2.891   3.005   2.013
 4799WAT      O28347   0.847   5.302   9.208
 4799WAT     H128348   0.801   5.295   9.125
 4799WAT     H228349   0.911   5.232   9.206
 4800WAT      O28350   1.716   1.976   2.753
 4800WAT     H128351   1.738   1.961   2.661
 4800WAT     H228352   1.742   2.067   2.769
 4801WAT      O28353   3.684   3.660   9.219
 4801WAT     H128354   3.675   3.662   9.124
 4801WAT     H228355   3.777   3.644   9.234
 4802WAT      O28356   3.454   4.266  11.050
 4802WAT     H128357   3.405   4.327  11.106
 4802WAT     H228358   3.546   4.284  11.069
 4803WAT      O28359   3.703   5.038  11.234
 4803WAT     H128360   3.661   4.964  11.189
 4803WAT     H228361   3.677   5.114  11.182
 4804WAT      O28362   0.402   3.742  11.372
 4804WAT     H128363   0.430   3.741  11.280
 4804WAT     H228364   0.368   3.654  11.388
 4805WAT      O28365   5.362   5.348   0.477
 4805WAT     H128366   5.447   5.376   0.441
 4805WAT     H228367   5.318   5.430   0.500
 4806WAT      O28368   0.505   2.386   0.844
 4806WAT     H128369   0.554   2.315   0.887
 4806WAT     H228370   0.570   2.455   0.832
 4807WAT      O28371   4.668   4.548   1.242
 4807WAT     H128372   4.740   4.611   1.235
 4807WAT     H228373   4.631   4.543   1.154
 4808WAT      O28374   2.591   5.782   1.098
 4808WAT     H128375   2.533   5.810   1.168
 4808WAT     H228376   2.612   5.691   1.119
 4809WAT      O28377   3.579   5.525   9.719
 4809WAT     H128378   3.582   5.441   9.764
 4809WAT     H228379   3.486   5.547   9.715
 4810WAT      O28380   1.574   1.665   1.696
 4810WAT     H128381   1.513   1.665   1.769
 4810WAT     H228382   1.549   1.589   1.644
 4811WAT      O28383   1.707   4.352  10.821
 4811WAT     H128384   1.741   4.409  10.890
 4811WAT     H228385   1.651   4.289  10.867
 4812WAT      O28386   2.729   0.643   2.167
 4812WAT     H128387   2.718   0.631   2.261
 4812WAT     H228388   2.736   0.738   2.156
 4813WAT      O28389   4.964   5.054   3.094
 4813WAT     H128390   5.000   5.028   3.179
 4813WAT     H228391   4.959   5.149   3.099
 4814WAT      O28392   2.348   0.382  11.346
 4814WAT     H128393   2.326   0.464  11.301
 4814WAT     H228394   2.386   0.326  11.278
 4815WAT      O28395   0.469   6.122   9.469
 4815WAT     H128396   0.479   6.217   9.466
 4815WAT     H228397   0.557   6.088   9.454
 4816WAT      O28398   6.251   3.868   0.325
 4816WAT     H128399   6.230   3.814   0.249
 4816WAT     H228400   6.170   3.914   0.346
 4817WAT      O28401   0.329   5.228   8.968
 4817WAT     H128402   0.275   5.151   8.982
 4817WAT     H228403   0.415   5.194   8.944
 4818WAT      O28404   1.683   0.242   0.184
 4818WAT     H128405   1.616   0.296   0.141
 4818WAT     H228406   1.665   0.252   0.277
 4819WAT      O28407   1.637   0.180  10.965
 4819WAT     H128408   1.732   0.171  10.964
 4819WAT     H228409   1.608   0.121  11.035
 4820WAT      O28410   3.389   5.597   3.866
 4820WAT     H128411   3.371   5.549   3.785
 4820WAT     H228412   3.324   5.566   3.928
 4821WAT      O28413   0.407   1.562  10.873
 4821WAT     H128414   0.436   1.523  10.791
 4821WAT     H228415   0.412   1.657  10.858
 4822WAT      O28416   5.379   1.543  11.480
 4822WAT     H128417   5.396   1.455  11.514
 4822WAT     H228418   5.343   1.591  11.554
 4823WAT      O28419   2.082   0.572   9.232
 4823WAT     H128420   2.161   0.521   9.252
 4823WAT     H228421   2.038   0.522   9.163
 4824WAT      O28422   4.118   3.975   3.656
 4824WAT     H128423   4.102   4.054   3.605
 4824WAT     H228424   4.134   4.006   3.745
 4825WAT      O28425   3.716   0.529   2.104
 4825WAT     H128426   3.791   0.581   2.132
 4825WAT     H228427   3.676   0.580   2.033
 4826WAT      O28428   2.923   1.599   4.141
 4826WAT     H128429   3.017   1.607   4.156
 4826WAT     H228430   2.884   1.608   4.228
 4827WAT      O28431   4.827   4.498   2.047
 4827WAT     H128432   4.869   4.569   1.998
 4827WAT     H228433   4.884   4.483   2.122
 4828WAT      O28434   1.590   4.439   9.189
 4828WAT     H128435   1.664   4.467   9.242
 4828WAT     H228436   1.513   4.457   9.243
 4829WAT      O28437   4.197   0.321   8.999
 4829WAT     H128438   4.271   0.271   9.035
 4829WAT     H228439   4.237   0.399   8.961
 4830WAT      O28440   0.899   4.993   8.561
 4830WAT     H128441   0.857   5.074   8.591
 4830WAT     H228442   0.973   4.980   8.620
 4831WAT      O28443   6.099   5.900   3.128
 4831WAT     H128444   6.087   5.991   3.155
 4831WAT     H228445   6.194   5.891   3.119
 4832WAT      O28446   1.462   4.040  11.917
 4832WAT     H128447   1.480   3.953  11.952
 4832WAT     H228448   1.545   4.088  11.927
 4833WAT      O28449   0.037   5.330   7.729
 4833WAT     H128450   0.086   5.300   7.652
 4833WAT     H228451   0.092   5.306   7.803
 4834WAT      O28452   3.866   5.147   3.744
 4834WAT     H128453   3.945   5.109   3.782
 4834WAT     H228454   3.898   5.220   3.691
 4835WAT      O28455   5.641   4.963   1.811
 4835WAT     H128456   5.714   4.990   1.868
 4835WAT     H228457   5.657   5.009   1.728
 4836WAT      O28458   4.653   0.441   2.903
 4836WAT     H128459   4.593   0.475   2.970
 4836WAT     H228460   4.614   0.467   2.820
 4837WAT      O28461   5.122   0.136   0.635
 4837WAT     H128462   5.160   0.048   0.633
 4837WAT     H228463   5.043   0.129   0.582
 4838WAT      O28464   0.670   3.218   3.367
 4838WAT     H128465   0.704   3.285   3.308
 4838WAT     H228466   0.716   3.138   3.342
 4839WAT      O28467   3.303   5.152   8.098
 4839WAT     H128468   3.361   5.193   8.035
 4839WAT     H228469   3.340   5.065   8.112
 4840WAT      O28470   3.092   2.202   1.800
 4840WAT     H128471   3.061   2.281   1.845
 4840WAT     H228472   3.014   2.166   1.758
 4841WAT      O28473   3.958   5.113  10.949
 4841WAT     H128474   3.988   5.158  11.028
 4841WAT     H228475   4.038   5.074  10.912
 4842WAT      O28476   5.067   3.980   2.747
 4842WAT     H128477   4.980   4.015   2.726
 4842WAT     H228478   5.053   3.886   2.760
 4843WAT      O28479   4.156   1.795   2.494
 4843WAT     H128480   4.238   1.815   2.448
 4843WAT     H228481   4.099   1.869   2.473
 4844WAT      O28482   0.835   5.543   0.915
 4844WAT     H128483   0.765   5.490   0.878
 4844WAT     H228484   0.799   5.577   0.996
 4845WAT      O28485   3.182   0.951  11.538
 4845WAT     H128486   3.123   1.007  11.588
 4845WAT     H228487   3.270   0.986  11.555
 4846WAT      O28488   4.761   4.808   0.332
 4846WAT     H128489   4.842   4.860   0.326
 4846WAT     H228490   4.736   4.815   0.424
 4847WAT      O28491   5.604   2.200   0.779
 4847WAT     H128492   5.593   2.111   0.746
 4847WAT     H228493   5.520   2.243   0.761
 4848WAT      O28494   0.522   0.674  10.168
 4848WAT     H128495   0.595   0.720  10.210
 4848WAT     H228496   0.487   0.737  10.106
 4849WAT      O28497   5.609   0.442  10.680
 4849WAT     H128498   5.524   0.483  10.695
 4849WAT     H228499   5.611   0.423  10.586
 4850WAT      O28500   1.298   4.270   4.863
 4850WAT     H128501   1.390   4.269   4.834
 4850WAT     H228502   1.258   4.339   4.810
 4851WAT      O28503   5.863   5.001   1.612
 4851WAT     H128504   5.829   5.081   1.572
 4851WAT     H228505   5.907   4.955   1.541
 4852WAT      O28506   2.325   4.190  11.021
 4852WAT     H128507   2.386   4.130  11.065
 4852WAT     H228508   2.380   4.240  10.961
 4853WAT      O28509   1.248   5.208   9.395
 4853WAT     H128510   1.268   5.209   9.301
 4853WAT     H228511   1.157   5.236   9.401
 4854WAT      O28512   2.326   3.052   1.575
 4854WAT     H128513   2.395   3.101   1.620
 4854WAT     H228514   2.366   2.968   1.553
 4855WAT      O28515   2.247   4.289   0.826
 4855WAT     H128516   2.214   4.297   0.916
 4855WAT     H228517   2.340   4.310   0.833
 4856WAT      O28518   2.039   2.909  12.153
 4856WAT     H128519   2.051   2.992  12.200
 4856WAT     H228520   2.003   2.935  12.068
 4857WAT      O28521   1.772   2.956   9.601
 4857WAT     H128522   1.861   2.982   9.624
 4857WAT     H228523   1.716   3.004   9.662
 4858WAT      O28524   3.012   2.687   9.042
 4858WAT     H128525   2.982   2.722   9.126
 4858WAT     H228526   3.040   2.597   9.062
 4859WAT      O28527   4.497   2.866   1.764
 4859WAT     H128528   4.474   2.949   1.722
 4859WAT     H228529   4.485   2.883   1.858
 4860WAT      O28530   5.555   5.387  10.477
 4860WAT     H128531   5.555   5.293  10.495
 4860WAT     H228532   5.463   5.409  10.463
 4861WAT      O28533   3.074   2.425   9.132
 4861WAT     H128534   3.145   2.377   9.088
 4861WAT     H228535   3.080   2.399   9.224
 4862WAT      O28536   3.950   6.113   0.074
 4862WAT     H128537   4.005   6.160   0.136
 4862WAT     H228538   3.902   6.182   0.028
 4863WAT      O28539   3.182   3.174   9.033
 4863WAT     H128540   3.205   3.083   9.011
 4863WAT     H228541   3.264   3.214   9.060
 4864WAT      O28542   1.879   5.959   9.147
 4864WAT     H128543   1.886   5.897   9.219
 4864WAT     H228544   1.802   6.012   9.168
 4865WAT      O28545   2.952   0.523   9.083
 4865WAT     H128546   2.948   0.613   9.113
 4865WAT     H228547   3.007   0.478   9.148
 4866WAT      O28548   2.802   0.032   4.673
 4866WAT     H128549   2.780  -0.045   4.725
 4866WAT     H228550   2.723   0.086   4.676
 4867WAT      O28551   2.991   1.420  12.106
 4867WAT     H128552   3.021   1.342  12.152
 4867WAT     H228553   3.040   1.492  12.145
 4868WAT      O28554   3.601   2.349   1.123
 4868WAT     H128555   3.546   2.365   1.200
 4868WAT     H228556   3.586   2.424   1.066
 4869WAT      O28557   1.971   1.229   1.435
 4869WAT     H128558   2.039   1.186   1.485
 4869WAT     H228559   1.987   1.323   1.446
 4870WAT      O28560   3.020   0.512  10.311
 4870WAT     H128561   2.993   0.600  10.335
 4870WAT     H228562   3.099   0.524  10.259
 4871WAT      O28563   5.113   0.218   2.230
 4871WAT     H128564   5.103   0.299   2.180
 4871WAT     H228565   5.112   0.148   2.164
 4872WAT      O28566   1.245   0.486   1.071
 4872WAT     H128567   1.231   0.400   1.032
 4872WAT     H228568   1.157   0.516   1.096
 4873WAT      O28569   4.921   0.911   8.715
 4873WAT     H128570   5.011   0.944   8.715
 4873WAT     H228571   4.872   0.976   8.766
 4874WAT      O28572   0.684   3.899   4.091
 4874WAT     H128573   0.690   3.942   4.176
 4874WAT     H228574   0.769   3.857   4.079
 4875WAT      O28575   1.881   1.862  11.806
 4875WAT     H128576   1.825   1.924  11.759
 4875WAT     H228577   1.878   1.782  11.754
 4876WAT      O28578   0.551   2.797  10.876
 4876WAT     H128579   0.606   2.797  10.955
 4876WAT     H228580   0.527   2.889  10.864
 4877WAT      O28581   2.652   3.967   3.905
 4877WAT     H128582   2.576   3.976   3.962
 4877WAT     H228583   2.635   4.028   3.833
 4878WAT      O28584   4.151   1.253  11.063
 4878WAT     H128585   4.157   1.207  10.979
 4878WAT     H228586   4.211   1.326  11.054
 4879WAT      O28587   4.584   5.043  10.887
 4879WAT     H128588   4.538   5.114  10.842
 4879WAT     H228589   4.577   4.968  10.827
 4880WAT      O28590   2.466   1.970   1.815
 4880WAT     H128591   2.474   1.876   1.801
 4880WAT     H228592   2.531   1.990   1.882
 4881WAT      O28593   2.492   5.644  10.600
 4881WAT     H128594   2.568   5.686  10.560
 4881WAT     H228595   2.460   5.708  10.664
 4882WAT      O28596   1.710   2.739   3.840
 4882WAT     H128597   1.663   2.689   3.907
 4882WAT     H228598   1.694   2.831   3.863
 4883WAT      O28599   3.885   0.390   9.607
 4883WAT     H128600   3.981   0.387   9.613
 4883WAT     H228601   3.866   0.475   9.567
 4884WAT      O28602   1.982   4.313   3.383
 4884WAT     H128603   1.926   4.361   3.322
 4884WAT     H228604   1.949   4.223   3.382
 4885WAT      O28605   2.658   2.652  10.275
 4885WAT     H128606   2.734   2.681  10.224
 4885WAT     H228607   2.656   2.557  10.264
 4886WAT      O28608   4.701   2.314  10.587
 4886WAT     H128609   4.768   2.303  10.656
 4886WAT     H228610   4.622   2.337  10.635
 4887WAT      O28611   4.294   6.008   9.456
 4887WAT     H128612   4.365   6.071   9.447
 4887WAT     H228613   4.325   5.945   9.521
 4888WAT      O28614   0.646   4.448  10.853
 4888WAT     H128615   0.719   4.394  10.822
 4888WAT     H228616   0.682   4.493  10.930
 4889WAT      O28617   5.964   3.454  12.511
 4889WAT     H128618   5.956   3.508  12.590
 4889WAT     H228619   5.973   3.365  12.544
 4890WAT      O28620   1.759   0.841  -0.010
 4890WAT     H128621   1.750   0.935   0.009
 4890WAT     H228622   1.775   0.800   0.075
 4891WAT      O28623   4.770   2.679   1.832
 4891WAT     H128624   4.694   2.662   1.776
 4891WAT     H228625   4.844   2.680   1.772
 4892WAT      O28626   2.415   3.750  11.744
 4892WAT     H128627   2.386   3.719  11.658
 4892WAT     H228628   2.345   3.723  11.804
 4893WAT      O28629   3.416   3.766   2.862
 4893WAT     H128630   3.504   3.781   2.897
 4893WAT     H228631   3.365   3.736   2.938
 4894WAT      O28632   2.465   2.815  10.416
 4894WAT     H128633   2.513   2.790  10.337
 4894WAT     H228634   2.467   2.737  10.471
 4895WAT      O28635   2.875   0.500   0.700
 4895WAT     H128636   2.937   0.572   0.690
 4895WAT     H228637   2.850   0.478   0.610
 4896WAT      O28638   0.523   4.892   2.162
 4896WAT     H128639   0.437   4.855   2.184
 4896WAT     H228640   0.580   4.816   2.153
 4897WAT      O28641   1.033   2.780   8.179
 4897WAT     H128642   1.079   2.853   8.137
 4897WAT     H228643   1.063   2.703   8.130
 4898WAT      O28644   3.962   1.986   3.829
 4898WAT     H128645   4.047   2.006   3.870
 4898WAT     H228646   3.898   2.035   3.881
 4899WAT      O28647   0.235   2.897   2.019
 4899WAT     H128648   0.218   2.909   1.926
 4899WAT     H228649   0.181   2.822   2.044
 4900WAT      O28650   0.975   0.159   9.882
 4900WAT     H128651   0.906   0.187   9.821
 4900WAT     H228652   0.983   0.232   9.943
 4901WAT      O28653   2.986   2.481   1.198
 4901WAT     H128654   3.045   2.480   1.274
 4901WAT     H228655   3.042   2.459   1.124
 4902WAT      O28656   1.619   5.715   3.514
 4902WAT     H128657   1.596   5.631   3.554
 4902WAT     H228658   1.652   5.768   3.586
 4903WAT      O28659   4.643   4.219   9.492
 4903WAT     H128660   4.670   4.160   9.422
 4903WAT     H228661   4.674   4.176   9.572
 4904WAT      O28662   2.535   0.139  12.164
 4904WAT     H128663   2.526   0.160  12.071
 4904WAT     H228664   2.483   0.060  12.176
 4905WAT      O28665   5.206   1.407   9.389
 4905WAT     H128666   5.179   1.448   9.307
 4905WAT     H228667   5.136   1.429   9.451
 4906WAT      O28668   4.802   0.308   3.121
 4906WAT     H128669   4.755   0.336   3.043
 4906WAT     H228670   4.749   0.341   3.194
 4907WAT      O28671   3.679   1.127   3.515
 4907WAT     H128672   3.589   1.151   3.536
 4907WAT     H228673   3.730   1.206   3.531
 4908WAT      O28674   2.105   2.512   0.281
 4908WAT     H128675   2.116   2.497   0.375
 4908WAT     H228676   2.170   2.579   0.260
 4909WAT      O28677   0.989   1.876   2.485
 4909WAT     H128678   0.958   1.927   2.560
 4909WAT     H228679   1.016   1.792   2.523
 4910WAT      O28680   0.851   5.264   0.507
 4910WAT     H128681   0.767   5.295   0.541
 4910WAT     H228682   0.888   5.341   0.464
 4911WAT      O28683   4.104   3.969   2.851
 4911WAT     H128684   4.063   3.893   2.810
 4911WAT     H228685   4.191   3.937   2.878
 4912WAT      O28686   4.810   0.976  11.437
 4912WAT     H128687   4.751   0.933  11.499
 4912WAT     H228688   4.756   0.991  11.360
 4913WAT      O28689   6.131   4.971   3.374
 4913WAT     H128690   6.128   5.006   3.285
 4913WAT     H228691   6.087   4.887   3.369
 4914WAT      O28692   1.798   2.072   8.577
 4914WAT     H128693   1.874   2.119   8.611
 4914WAT     H228694   1.833   1.991   8.541
 4915WAT      O28695   2.833   4.070   4.627
 4915WAT     H128696   2.751   4.059   4.579
 4915WAT     H228697   2.898   4.022   4.575
 4916WAT      O28698   0.874   2.935  10.845
 4916WAT     H128699   0.929   2.858  10.835
 4916WAT     H228700   0.847   2.934  10.937
 4917WAT      O28701   4.947   1.109  10.514
 4917WAT     H128702   4.858   1.140  10.499
 4917WAT     H228703   4.941   1.014  10.510
 4918WAT      O28704   3.124   4.574   0.256
 4918WAT     H128705   3.054   4.551   0.195
 4918WAT     H228706   3.104   4.525   0.336
 4919WAT      O28707   4.721   1.687  10.873
 4919WAT     H128708   4.713   1.701  10.967
 4919WAT     H228709   4.662   1.752  10.835
 4920WAT      O28710   5.383   3.058  12.012
 4920WAT     H128711   5.476   3.035  12.013
 4920WAT     H228712   5.338   2.980  12.044
 4921WAT      O28713   5.113   2.354  11.379
 4921WAT     H128714   5.205   2.379  11.375
 4921WAT     H228715   5.073   2.418  11.437
 4922WAT      O28716   2.404   3.553   4.232
 4922WAT     H128717   2.410   3.459   4.248
 4922WAT     H228718   2.417   3.593   4.318
 4923WAT      O28719   4.137   3.193  12.163
 4923WAT     H128720   4.126   3.175  12.069
 4923WAT     H228721   4.226   3.165  12.183
 4924WAT      O28722   1.144   2.563   9.821
 4924WAT     H128723   1.219   2.550   9.879
 4924WAT     H228724   1.180   2.559   9.733
 4925WAT      O28725   2.672   3.276   1.216
 4925WAT     H128726   2.593   3.326   1.238
 4925WAT     H228727   2.696   3.307   1.129
 4926WAT      O28728   4.818   0.906   3.260
 4926WAT     H128729   4.746   0.928   3.318
 4926WAT     H228730   4.895   0.907   3.316
 4927WAT      O28731   2.100   1.543   9.719
 4927WAT     H128732   2.089   1.473   9.783
 4927WAT     H228733   2.030   1.529   9.655
 4928WAT      O28734   3.756   5.502   9.517
 4928WAT     H128735   3.844   5.477   9.544
 4928WAT     H228736   3.706   5.504   9.599
 4929WAT      O28737   1.760   0.977  10.791
 4929WAT     H128738   1.703   0.979  10.715
 4929WAT     H228739   1.754   0.888  10.824
 4930WAT      O28740   1.837   5.097   3.017
 4930WAT     H128741   1.914   5.048   3.046
 4930WAT     H228742   1.864   5.139   2.936
 4931WAT      O28743   5.585   6.206  11.443
 4931WAT     H128744   5.514   6.179  11.502
 4931WAT     H228745   5.664   6.197  11.495
 4932WAT      O28746   5.338   1.946  11.667
 4932WAT     H128747   5.348   2.021  11.608
 4932WAT     H228748   5.428   1.919  11.687
 4933WAT      O28749   5.248   4.650  10.223
 4933WAT     H128750   5.239   4.670  10.129
 4933WAT     H228751   5.172   4.691  10.263
 4934WAT      O28752   4.252   2.090   1.423
 4934WAT     H128753   4.162   2.079   1.391
 4934WAT     H228754   4.289   2.002   1.418
 4935WAT      O28755   1.599   3.974   2.849
 4935WAT     H128756   1.624   3.981   2.941
 4935WAT     H228757   1.507   3.948   2.852
 4936WAT      O28758   2.425   2.943  12.061
 4936WAT     H128759   2.394   2.864  12.105
 4936WAT     H228760   2.359   2.962  11.995
 4937WAT      O28761   3.491   4.218   9.689
 4937WAT     H128762   3.423   4.234   9.624
 4937WAT     H228763   3.556   4.165   9.643
 4938WAT      O28764   6.134   2.148   9.456
 4938WAT     H128765   6.071   2.161   9.386
 4938WAT     H228766   6.085   2.167   9.536
 4939WAT      O28767   4.179   2.988   1.104
 4939WAT     H128768   4.122   2.978   1.028
 4939WAT     H228769   4.130   3.044   1.164
 4940WAT      O28770   0.978   6.233   3.500
 4940WAT     H128771   0.936   6.173   3.439
 4940WAT     H228772   0.910   6.256   3.563
 4941WAT      O28773   0.183   6.044   3.613
 4941WAT     H128774   0.161   6.135   3.595
 4941WAT     H228775   0.117   5.993   3.566
 4942WAT      O28776   4.420   2.900   8.391
 4942WAT     H128777   4.399   2.940   8.475
 4942WAT     H228778   4.415   2.972   8.328
 4943WAT      O28779   4.174   1.450   9.170
 4943WAT     H128780   4.125   1.398   9.234
 4943WAT     H228781   4.258   1.404   9.162
 4944WAT      O28782   1.951   0.368   9.085
 4944WAT     H128783   1.885   0.338   9.024
 4944WAT     H228784   1.976   0.290   9.134
 4945WAT      O28785   3.018   2.192   0.464
 4945WAT     H128786   3.107   2.170   0.436
 4945WAT     H228787   3.006   2.145   0.546
 4946WAT      O28788   3.637   1.337   8.827
 4946WAT     H128789   3.712   1.334   8.767
 4946WAT     H228790   3.651   1.417   8.878
 4947WAT      O28791   3.884   5.435   3.052
 4947WAT     H128792   3.906   5.512   3.000
 4947WAT     H228793   3.789   5.441   3.064
 4948WAT      O28794   4.333   3.060   4.473
 4948WAT     H128795   4.239   3.072   4.487
 4948WAT     H228796   4.355   3.123   4.403
 4949WAT      O28797   2.368   4.554   9.762
 4949WAT     H128798   2.276   4.559   9.788
 4949WAT     H228799   2.380   4.464   9.734
 4950WAT      O28800   1.084   1.593   8.433
 4950WAT     H128801   1.042   1.598   8.347
 4950WAT     H228802   1.177   1.582   8.414
 4951WAT      O28803   0.010   4.568   7.837
 4951WAT     H128804   0.058   4.621   7.773
 4951WAT     H228805   0.073   4.555   7.908
 4952WAT      O28806   0.176   0.453  10.373
 4952WAT     H128807   0.199   0.546  10.369
 4952WAT     H228808   0.255   0.410  10.405
 4953WAT      O28809   0.842   3.874   3.397
 4953WAT     H128810   0.910   3.913   3.451
 4953WAT     H228811   0.774   3.847   3.459
 4954WAT      O28812   0.535   5.739  11.922
 4954WAT     H128813   0.596   5.795  11.874
 4954WAT     H228814   0.590   5.687  11.980
 4955WAT      O28815   2.339   1.337   9.593
 4955WAT     H128816   2.413   1.302   9.643
 4955WAT     H228817   2.262   1.316   9.646
 4956WAT      O28818   0.529   0.628  11.831
 4956WAT     H128819   0.597   0.581  11.783
 4956WAT     H228820   0.453   0.628  11.772
 4957WAT      O28821   3.774   4.887   0.287
 4957WAT     H128822   3.834   4.914   0.217
 4957WAT     H228823   3.789   4.951   0.357
 4958WAT      O28824   1.751   4.649   8.103
 4958WAT     H128825   1.816   4.600   8.055
 4958WAT     H228826   1.676   4.590   8.110
 4959WAT      O28827   4.262   2.879   0.093
 4959WAT     H128828   4.332   2.943   0.079
 4959WAT     H228829   4.232   2.858   0.004
 4960WAT      O28830   2.186   4.325  10.286
 4960WAT     H128831   2.272   4.365  10.298
 4960WAT     H228832   2.171   4.329  10.192
 4961WAT      O28833   4.319   5.101  10.168
 4961WAT     H128834   4.312   5.196  10.165
 4961WAT     H228835   4.370   5.077  10.091
 4962WAT      O28836   4.039   4.569   3.121
 4962WAT     H128837   4.122   4.578   3.075
 4962WAT     H228838   3.972   4.589   3.056
 4963WAT      O28839   2.023   3.846   0.898
 4963WAT     H128840   1.992   3.814   0.983
 4963WAT     H228841   2.015   3.771   0.839
 4964WAT      O28842   4.196   5.580  12.517
 4964WAT     H128843   4.167   5.671  12.508
 4964WAT     H228844   4.122   5.528  12.486
 4965WAT      O28845   1.451   3.056   9.673
 4965WAT     H128846   1.434   2.962   9.663
 4965WAT     H228847   1.452   3.070   9.768
 4966WAT      O28848   1.706   3.726   0.334
 4966WAT     H128849   1.656   3.715   0.253
 4966WAT     H228850   1.706   3.821   0.350
 4967WAT      O28851   3.225   5.502   4.071
 4967WAT     H128852   3.136   5.528   4.094
 4967WAT     H228853   3.218   5.409   4.048
 4968WAT      O28854   3.010   4.107   9.948
 4968WAT     H128855   3.102   4.081   9.940
 4968WAT     H228856   2.993   4.106  10.042
 4969WAT      O28857   3.221   4.625   2.184
 4969WAT     H128858   3.245   4.690   2.118
 4969WAT     H228859   3.200   4.547   2.133
 4970WAT      O28860   1.721   4.696   1.624
 4970WAT     H128861   1.728   4.617   1.570
 4970WAT     H228862   1.693   4.663   1.710
 4971WAT      O28863   2.920   0.116  10.295
 4971WAT     H128864   3.005   0.147  10.326
 4971WAT     H228865   2.898   0.046  10.356
 4972WAT      O28866   1.571   2.400  10.695
 4972WAT     H128867   1.524   2.316  10.691
 4972WAT     H228868   1.522   2.452  10.758
 4973WAT      O28869   2.214   1.739   3.554
 4973WAT     H128870   2.161   1.674   3.600
 4973WAT     H228871   2.266   1.780   3.623
 4974WAT      O28872   1.241   1.531  10.883
 4974WAT     H128873   1.317   1.521  10.941
 4974WAT     H228874   1.187   1.454  10.901
 4975WAT      O28875   4.615   4.326   8.534
 4975WAT     H128876   4.604   4.359   8.445
 4975WAT     H228877   4.617   4.405   8.588
 4976WAT      O28878   3.759   2.240   9.904
 4976WAT     H128879   3.825   2.259   9.970
 4976WAT     H228880   3.739   2.147   9.916
 4977WAT      O28881   5.071   1.067  11.562
 4977WAT     H128882   5.089   1.014  11.640
 4977WAT     H228883   4.980   1.050  11.541
 4978WAT      O28884   1.890   2.383   3.740
 4978WAT     H128885   1.826   2.314   3.724
 4978WAT     H228886   1.870   2.414   3.829
 4979WAT      O28887   0.463   1.219   3.102
 4979WAT     H128888   0.527   1.287   3.125
 4979WAT     H228889   0.425   1.247   3.019
 4980WAT      O28890   2.772   2.604   1.424
 4980WAT     H128891   2.723   2.530   1.461
 4980WAT     H228892   2.864   2.581   1.441
 4981WAT      O28893   3.519   2.006  10.426
 4981WAT     H128894   3.582   1.963  10.368
 4981WAT     H228895   3.434   1.990  10.386
 4982WAT      O28896   2.078   5.740   3.505
 4982WAT     H128897   1.997   5.756   3.457
 4982WAT     H228898   2.135   5.813   3.480
 4983WAT      O28899   2.196   2.995  10.492
 4983WAT     H128900   2.289   2.998  10.468
 4983WAT     H228901   2.184   2.907  10.528
 4984WAT      O28902   5.365   5.080  11.506
 4984WAT     H128903   5.341   5.172  11.492
 4984WAT     H228904   5.289   5.043  11.552
 4985WAT      O28905   4.429   1.671   8.388
 4985WAT     H128906   4.437   1.748   8.332
 4985WAT     H228907   4.392   1.603   8.331
 4986WAT      O28908   3.254   1.926   1.750
 4986WAT     H128909   3.328   1.982   1.776
 4986WAT     H228910   3.189   1.940   1.819
 4987WAT      O28911   2.430   3.534   2.388
 4987WAT     H128912   2.421   3.445   2.423
 4987WAT     H228913   2.462   3.586   2.462
 4988WAT      O28914   5.638   1.686   3.369
 4988WAT     H128915   5.696   1.759   3.392
 4988WAT     H228916   5.693   1.629   3.315
 4989WAT      O28917   2.385   3.888  10.005
 4989WAT     H128918   2.394   3.873   9.911
 4989WAT     H228919   2.372   3.982  10.013
 4990WAT      O28920   1.031   4.332   1.566
 4990WAT     H128921   1.037   4.414   1.517
 4990WAT     H228922   0.938   4.322   1.585
 4991WAT      O28923   3.992   3.820   9.896
 4991WAT     H128924   3.907   3.834   9.854
 4991WAT     H228925   4.052   3.802   9.823
 4992WAT      O28926   0.512   5.205   2.940
 4992WAT     H128927   0.595   5.207   2.987
 4992WAT     H228928   0.505   5.292   2.900
 4993WAT      O28929   5.590   2.843  11.360
 4993WAT     H128930   5.566   2.788  11.434
 4993WAT     H228931   5.686   2.839  11.358
 4994WAT      O28932   1.235   0.015   1.807
 4994WAT     H128933   1.161   0.029   1.749
 4994WAT     H228934   1.301   0.078   1.777
 4995WAT      O28935   5.101   5.191   1.502
 4995WAT     H128936   5.119   5.231   1.587
 4995WAT     H228937   5.159   5.238   1.441
 4996WAT      O28938   3.225   3.782   2.601
 4996WAT     H128939   3.302   3.803   2.549
 4996WAT     H228940   3.258   3.777   2.691
 4997WAT      O28941   5.475   5.683  11.240
 4997WAT     H128942   5.496   5.718  11.327
 4997WAT     H228943   5.422   5.752  11.199
 4998WAT      O28944   1.784   1.047   1.504
 4998WAT     H128945   1.854   1.112   1.493
 4998WAT     H228946   1.790   0.992   1.426
 4999WAT      O28947   3.817   2.962   0.523
 4999WAT     H128948   3.823   2.897   0.593
 4999WAT     H228949   3.801   2.911   0.444
 5000WAT      O28950   2.513   3.704  12.392
 5000WAT     H128951   2.511   3.752  12.475
 5000WAT     H228952   2.583   3.640  12.402
 5001WAT      O28953   1.508   4.097   8.217
 5001WAT     H128954   1.522   4.026   8.280
 5001WAT     H228955   1.592   4.103   8.170
 5002WAT      O28956   5.747   4.708   4.624
 5002WAT     H128957   5.656   4.725   4.651
 5002WAT     H228958   5.796   4.706   4.706
 5003WAT      O28959   1.972   3.139   3.341
 5003WAT     H128960   1.983   3.213   3.280
 5003WAT     H228961   2.004   3.172   3.425
 5004WAT      O28962   5.257   2.406   3.738
 5004WAT     H128963   5.248   2.485   3.791
 5004WAT     H228964   5.177   2.403   3.685
 5005WAT      O28965   2.409   4.347   3.694
 5005WAT     H128966   2.449   4.432   3.677
 5005WAT     H228967   2.346   4.336   3.623
 5006WAT      O28968   1.157   3.900   9.993
 5006WAT     H128969   1.107   3.923  10.072
 5006WAT     H228970   1.205   3.979   9.970
 5007WAT      O28971   5.738   4.347   9.045
 5007WAT     H128972   5.825   4.306   9.037
 5007WAT     H228973   5.726   4.393   8.962
 5008WAT      O28974   4.607   0.420  12.292
 5008WAT     H128975   4.695   0.446  12.264
 5008WAT     H228976   4.566   0.501  12.322
 5009WAT      O28977   0.100   5.192   2.738
 5009WAT     H128978   0.044   5.267   2.717
 5009WAT     H228979   0.116   5.200   2.832
 5010WAT      O28980   2.180   1.844   0.274
 5010WAT     H128981   2.206   1.882   0.190
 5010WAT     H228982   2.211   1.754   0.270
 5011WAT      O28983   5.125   3.494   0.913
 5011WAT     H128984   5.117   3.533   1.000
 5011WAT     H228985   5.075   3.412   0.920
 5012WAT      O28986   1.883   1.458   8.935
 5012WAT     H128987   1.908   1.442   9.026
 5012WAT     H228988   1.958   1.429   8.884
 5013WAT      O28989   4.270   4.423   0.662
 5013WAT     H128990   4.192   4.456   0.617
 5013WAT     H228991   4.330   4.400   0.592
 5014WAT      O28992   3.481   0.446   2.232
 5014WAT     H128993   3.489   0.351   2.238
 5014WAT     H228994   3.567   0.476   2.205
 5015WAT      O28995   4.786   5.178   1.794
 5015WAT     H128996   4.699   5.191   1.756
 5015WAT     H228997   4.795   5.250   1.858
 5016WAT      O28998   5.496   5.126  10.574
 5016WAT     H128999   5.469   5.150  10.662
 5016WAT     H229000   5.569   5.065  10.587
 5017WAT      O29001   5.948   1.367   4.094
 5017WAT     H129002   5.857   1.339   4.101
 5017WAT     H229003   5.989   1.336   4.175
 5018WAT      O29004   3.892   6.108  11.145
 5018WAT     H129005   3.922   6.025  11.108
 5018WAT     H229006   3.851   6.084  11.228
 5019WAT      O29007   0.841   3.464   2.380
 5019WAT     H129008   0.780   3.533   2.356
 5019WAT     H229009   0.822   3.392   2.320
 5020WAT      O29010   5.082   2.020   2.752
 5020WAT     H129011   4.999   2.051   2.715
 5020WAT     H229012   5.128   1.980   2.678
 5021WAT      O29013   0.076   3.689   0.938
 5021WAT     H129014   0.088   3.594   0.926
 5021WAT     H229015  -0.019   3.700   0.947
 5022WAT      O29016   1.652   5.959   2.398
 5022WAT     H129017   1.572   6.006   2.423
 5022WAT     H229018   1.622   5.871   2.375
 5023WAT      O29019   3.479   4.639   0.956
 5023WAT     H129020   3.390   4.626   0.921
 5023WAT     H229021   3.532   4.574   0.910
 5024WAT      O29022   4.022   1.868   1.878
 5024WAT     H129023   4.105   1.840   1.842
 5024WAT     H229024   3.961   1.866   1.804
 5025WAT      O29025   5.914   5.371   1.243
 5025WAT     H129026   5.819   5.379   1.249
 5025WAT     H229027   5.929   5.333   1.156
 5026WAT      O29028   2.524   1.981  11.683
 5026WAT     H129029   2.537   2.070  11.714
 5026WAT     H229030   2.531   1.987  11.588
 5027WAT      O29031   6.146   2.430   3.250
 5027WAT     H129032   6.078   2.497   3.239
 5027WAT     H229033   6.199   2.460   3.323
 5028WAT      O29034   0.426   6.035   3.740
 5028WAT     H129035   0.340   6.045   3.699
 5028WAT     H229036   0.417   5.957   3.796
 5029WAT      O29037   4.552   3.760   4.551
 5029WAT     H129038   4.602   3.798   4.478
 5029WAT     H229039   4.504   3.688   4.512
 5030WAT      O29040   0.118   4.122   4.702
 5030WAT     H129041   0.206   4.096   4.732
 5030WAT     H229042   0.123   4.217   4.692
 5031WAT      O29043   3.998   4.932  12.298
 5031WAT     H129044   3.969   4.865  12.359
 5031WAT     H229045   3.963   4.904  12.213
 5032WAT      O29046   0.939   3.419  11.811
 5032WAT     H129047   0.855   3.381  11.839
 5032WAT     H229048   0.927   3.513  11.822
 5033WAT      O29049   2.060   4.011  11.429
 5033WAT     H129050   2.138   4.048  11.469
 5033WAT     H229051   2.093   3.942  11.371
 5034WAT      O29052   4.670   4.021   9.675
 5034WAT     H129053   4.628   4.063   9.750
 5034WAT     H229054   4.613   3.946   9.655
 5035WAT      O29055   5.161   2.528  12.281
 5035WAT     H129056   5.184   2.494  12.195
 5035WAT     H229057   5.230   2.495  12.339
 5036WAT      O29058   5.444   5.106  12.447
 5036WAT     H129059   5.404   5.077  12.365
 5036WAT     H229060   5.371   5.107  12.509
 5037WAT      O29061   4.351   4.132   0.238
 5037WAT     H129062   4.397   4.144   0.321
 5037WAT     H229063   4.258   4.131   0.262
 5038WAT      O29064   0.613   2.729   0.631
 5038WAT     H129065   0.540   2.778   0.667
 5038WAT     H229066   0.579   2.640   0.620
 5039WAT      O29067   0.706   1.346   4.957
 5039WAT     H129068   0.687   1.325   4.866
 5039WAT     H229069   0.643   1.294   5.007
 5040WAT      O29070   3.962   3.177  11.069
 5040WAT     H129071   3.967   3.231  11.147
 5040WAT     H229072   4.030   3.211  11.011
 5041WAT      O29073   0.108   5.563  10.638
 5041WAT     H129074   0.146   5.478  10.617
 5041WAT     H229075   0.036   5.543  10.698
 5042WAT      O29076   0.990   4.413  12.036
 5042WAT     H129077   0.930   4.371  11.975
 5042WAT     H229078   1.065   4.354  12.040
 5043WAT      O29079   5.022   5.772  10.177
 5043WAT     H129080   5.102   5.820  10.196
 5043WAT     H229081   4.965   5.837  10.135
 5044WAT      O29082   4.107   1.428  10.610
 5044WAT     H129083   4.162   1.385  10.676
 5044WAT     H229084   4.067   1.502  10.656
 5045WAT      O29085   0.064   2.889   8.507
 5045WAT     H129086   0.107   2.811   8.472
 5045WAT     H229087  -0.021   2.890   8.465
 5046WAT      O29088   1.506   4.600   8.793
 5046WAT     H129089   1.501   4.506   8.811
 5046WAT     H229090   1.415   4.628   8.784
 5047WAT      O29091   2.986   4.081   8.125
 5047WAT     H129092   3.027   4.040   8.049
 5047WAT     H229093   2.892   4.065   8.112
 5048WAT      O29094   4.569   0.222   8.734
 5048WAT     H129095   4.525   0.298   8.774
 5048WAT     H229096   4.636   0.260   8.678
 5049WAT      O29097   4.183   3.313  10.165
 5049WAT     H129098   4.162   3.390  10.218
 5049WAT     H229099   4.267   3.335  10.125
 5050WAT      O29100   0.856   0.845   2.270
 5050WAT     H129101   0.810   0.877   2.192
 5050WAT     H229102   0.896   0.762   2.241
 5051WAT      O29103   3.571   3.057   3.112
 5051WAT     H129104   3.579   2.988   3.047
 5051WAT     H229105   3.552   3.011   3.194
 5052WAT      O29106   1.921   2.555   8.664
 5052WAT     H129107   1.832   2.586   8.679
 5052WAT     H229108   1.966   2.629   8.623
 5053WAT      O29109   3.666   3.110   2.464
 5053WAT     H129110   3.708   3.194   2.482
 5053WAT     H229111   3.580   3.117   2.506
 5054WAT      O29112   4.912   5.047   1.388
 5054WAT     H129113   4.963   5.003   1.319
 5054WAT     H229114   4.971   5.114   1.422
 5055WAT      O29115   5.851   0.301   3.599
 5055WAT     H129116   5.931   0.274   3.644
 5055WAT     H229117   5.781   0.256   3.647
 5056WAT      O29118   2.420   3.080   3.533
 5056WAT     H129119   2.378   3.006   3.577
 5056WAT     H229120   2.463   3.128   3.604
 5057WAT      O29121   3.974   2.002   2.591
 5057WAT     H129122   3.912   1.984   2.662
 5057WAT     H229123   4.051   2.037   2.634
 5058WAT      O29124   4.120   4.575   3.618
 5058WAT     H129125   4.204   4.604   3.652
 5058WAT     H229126   4.123   4.479   3.628
 5059WAT      O29127   4.029   3.174  10.343
 5059WAT     H129128   4.106   3.200  10.292
 5059WAT     H229129   3.957   3.223  10.303
 5060WAT      O29130   3.927   2.630  12.509
 5060WAT     H129131   3.834   2.605  12.506
 5060WAT     H229132   3.941   2.680  12.429
 5061WAT      O29133   5.530   3.490   8.763
 5061WAT     H129134   5.575   3.436   8.828
 5061WAT     H229135   5.446   3.512   8.804
 5062WAT      O29136   1.768   5.792  12.370
 5062WAT     H129137   1.748   5.805  12.277
 5062WAT     H229138   1.734   5.871  12.413
 5063WAT      O29139   0.132   3.161   2.071
 5063WAT     H129140   0.208   3.201   2.114
 5063WAT     H229141   0.161   3.072   2.049
 5064WAT      O29142   2.763   4.670  10.384
 5064WAT     H129143   2.828   4.599  10.390
 5064WAT     H229144   2.720   4.656  10.299
 5065WAT      O29145   4.953   2.975   2.645
 5065WAT     H129146   4.916   3.010   2.564
 5065WAT     H229147   4.932   3.042   2.711
 5066WAT      O29148   2.398   3.090   7.833
 5066WAT     H129149   2.376   3.178   7.802
 5066WAT     H229150   2.469   3.062   7.775
 5067WAT      O29151   5.019   5.332   3.058
 5067WAT     H129152   5.103   5.316   3.013
 5067WAT     H229153   5.043   5.344   3.150
 5068WAT      O29154   0.697   4.106   3.224
 5068WAT     H129155   0.774   4.132   3.273
 5068WAT     H229156   0.633   4.176   3.239
 5069WAT      O29157   5.176   5.627   0.759
 5069WAT     H129158   5.113   5.626   0.686
 5069WAT     H229159   5.260   5.645   0.717
 5070WAT      O29160   1.473   5.331   4.131
 5070WAT     H129161   1.431   5.267   4.074
 5070WAT     H229162   1.474   5.289   4.217
 5071WAT      O29163   0.609   0.902  11.616
 5071WAT     H129164   0.689   0.952  11.599
 5071WAT     H229165   0.639   0.820  11.654
 5072WAT      O29166   0.789   5.175   2.528
 5072WAT     H129167   0.859   5.110   2.523
 5072WAT     H229168   0.709   5.127   2.508
 5073WAT      O29169   4.708   2.598  10.920
 5073WAT     H129170   4.777   2.629  10.861
 5073WAT     H229171   4.720   2.503  10.923
 5074WAT      O29172   3.503   1.317  11.407
 5074WAT     H129173   3.452   1.275  11.338
 5074WAT     H229174   3.514   1.407  11.378
 5075WAT      O29175   5.650   4.055   9.605
 5075WAT     H129176   5.660   3.960   9.610
 5075WAT     H229177   5.570   4.068   9.554
 5076WAT      O29178   4.963   5.523   3.648
 5076WAT     H129179   4.933   5.524   3.557
 5076WAT     H229180   4.902   5.580   3.694
 5077WAT      O29181   4.612   2.394   8.460
 5077WAT     H129182   4.566   2.329   8.512
 5077WAT     H229183   4.558   2.405   8.382
 5078WAT      O29184   0.210   1.666   1.383
 5078WAT     H129185   0.274   1.737   1.387
 5078WAT     H229186   0.192   1.655   1.290
 5079WAT      O29187   4.694   5.853   8.425
 5079WAT     H129188   4.693   5.920   8.357
 5079WAT     H229189   4.626   5.790   8.399
 5080WAT      O29190   5.097   5.350   3.983
 5080WAT     H129191   5.106   5.297   4.063
 5080WAT     H229192   5.018   5.315   3.941
 5081WAT      O29193   3.965   2.137   1.726
 5081WAT     H129194   4.052   2.152   1.764
 5081WAT     H229195   3.939   2.222   1.690
 5082WAT      O29196   4.948   2.491   7.841
 5082WAT     H129197   4.983   2.475   7.754
 5082WAT     H229198   4.857   2.516   7.827
 5083WAT      O29199   0.730   2.035   9.389
 5083WAT     H129200   0.726   1.957   9.334
 5083WAT     H229201   0.642   2.073   9.383
 5084WAT      O29202   4.586   5.641   1.530
 5084WAT     H129203   4.553   5.564   1.482
 5084WAT     H229204   4.569   5.714   1.471
 5085WAT      O29205   1.677   1.384   2.770
 5085WAT     H129206   1.691   1.473   2.737
 5085WAT     H229207   1.734   1.377   2.846
 5086WAT      O29208   3.318   0.701  11.487
 5086WAT     H129209   3.267   0.778  11.513
 5086WAT     H229210   3.343   0.660  11.570
 5087WAT      O29211   5.730   1.997   8.591
 5087WAT     H129212   5.762   1.963   8.675
 5087WAT     H229213   5.790   1.961   8.526
 5088WAT      O29214   6.191   2.720   9.565
 5088WAT     H129215   6.099   2.698   9.577
 5088WAT     H229216   6.238   2.664   9.626
 5089WAT      O29217   4.815   4.663  10.335
 5089WAT     H129218   4.891   4.721  10.339
 5089WAT     H229219   4.795   4.643  10.426
 5090WAT      O29220   0.044   3.007   4.494
 5090WAT     H129221   0.109   2.956   4.446
 5090WAT     H229222  -0.039   2.960   4.479
 5091WAT      O29223   2.168   1.809   8.647
 5091WAT     H129224   2.222   1.879   8.611
 5091WAT     H229225   2.197   1.799   8.737
 5092WAT      O29226   1.304   2.242   0.763
 5092WAT     H129227   1.399   2.251   0.756
 5092WAT     H229228   1.270   2.280   0.682
 5093WAT      O29229   4.361   2.884  12.253
 5093WAT     H129230   4.302   2.853  12.185
 5093WAT     H229231   4.448   2.864  12.220
 5094WAT      O29232   0.665   3.805  11.520
 5094WAT     H129233   0.631   3.743  11.585
 5094WAT     H229234   0.593   3.818  11.459
 5095WAT      O29235   2.286   3.625  10.286
 5095WAT     H129236   2.225   3.691  10.252
 5095WAT     H229237   2.247   3.597  10.368
 5096WAT      O29238   0.527   2.098   1.491
 5096WAT     H129239   0.432   2.102   1.483
 5096WAT     H229240   0.544   2.106   1.585
 5097WAT      O29241   0.671   5.333   4.539
 5097WAT     H129242   0.659   5.395   4.611
 5097WAT     H229243   0.706   5.385   4.467
 5098WAT      O29244   6.227   3.761  10.340
 5098WAT     H129245   6.256   3.762  10.249
 5098WAT     H229246   6.195   3.850  10.356
 5099WAT      O29247   4.234   5.119   2.093
 5099WAT     H129248   4.259   5.196   2.144
 5099WAT     H229249   4.256   5.044   2.148
 5100WAT      O29250   3.041   3.859   0.393
 5100WAT     H129251   3.033   3.836   0.485
 5100WAT     H229252   3.104   3.931   0.391
 5101WAT      O29253   4.293   0.504  10.400
 5101WAT     H129254   4.322   0.497  10.309
 5101WAT     H229255   4.205   0.467  10.400
 5102WAT      O29256   4.860   0.082  10.620
 5102WAT     H129257   4.858   0.116  10.530
 5102WAT     H229258   4.788   0.128  10.664
 5103WAT      O29259   1.207   0.858  12.682
 5103WAT     H129260   1.184   0.778  12.634
 5103WAT     H229261   1.254   0.911  12.618
 5104WAT      O29262   5.431   3.804   9.257
 5104WAT     H129263   5.393   3.892   9.257
 5104WAT     H229264   5.467   3.793   9.169
 5105WAT      O29265   2.256   2.723   8.225
 5105WAT     H129266   2.322   2.674   8.176
 5105WAT     H229267   2.269   2.814   8.199
 5106WAT      O29268   1.392   1.685   1.443
 5106WAT     H129269   1.323   1.681   1.509
 5106WAT     H229270   1.413   1.593   1.425
 5107WAT      O29271   3.074   4.161  11.131
 5107WAT     H129272   3.094   4.136  11.221
 5107WAT     H229273   3.075   4.257  11.132
 5108WAT      O29274   1.195   4.953   0.814
 5108WAT     H129275   1.258   5.018   0.845
 5108WAT     H229276   1.110   4.997   0.820
 5109WAT      O29277   5.537   2.681   8.352
 5109WAT     H129278   5.451   2.718   8.330
 5109WAT     H229279   5.519   2.589   8.367
 5110WAT      O29280   5.508   2.183  11.859
 5110WAT     H129281   5.514   2.089  11.842
 5110WAT     H229282   5.580   2.221  11.807
 5111WAT      O29283   3.086   3.096  11.212
 5111WAT     H129284   3.112   3.162  11.277
 5111WAT     H229285   2.992   3.088  11.224
 5112WAT      O29286   6.142   0.976   2.383
 5112WAT     H129287   6.047   0.969   2.375
 5112WAT     H229288   6.155   1.038   2.455
 5113WAT      O29289   5.120   3.118   0.298
 5113WAT     H129290   5.067   3.187   0.338
 5113WAT     H229291   5.207   3.130   0.336
 5114WAT      O29292   1.090   4.672   2.065
 5114WAT     H129293   1.045   4.637   1.988
 5114WAT     H229294   1.107   4.764   2.043
 5115WAT      O29295   5.217   2.610   1.312
 5115WAT     H129296   5.272   2.624   1.235
 5115WAT     H229297   5.136   2.573   1.276
 5116WAT      O29298   4.108   3.180   1.934
 5116WAT     H129299   4.184   3.122   1.934
 5116WAT     H229300   4.052   3.146   1.864
 5117WAT      O29301   0.582   5.220   1.547
 5117WAT     H129302   0.536   5.300   1.518
 5117WAT     H229303   0.586   5.228   1.642
 5118WAT      O29304   4.036   0.082   3.273
 5118WAT     H129305   4.017   0.166   3.315
 5118WAT     H229306   4.025   0.017   3.344
 5119WAT      O29307   4.832   3.937  12.343
 5119WAT     H129308   4.789   3.858  12.310
 5119WAT     H229309   4.878   3.908  12.422
 5120WAT      O29310   3.239   0.574  10.179
 5120WAT     H129311   3.283   0.511  10.122
 5120WAT     H229312   3.241   0.656  10.131
 5121WAT      O29313   6.009   2.653   2.058
 5121WAT     H129314   6.053   2.601   1.991
 5121WAT     H229315   6.043   2.741   2.048
 5122WAT      O29316   0.321   3.472   9.890
 5122WAT     H129317   0.360   3.488   9.976
 5122WAT     H229318   0.233   3.511   9.896
 5123WAT      O29319   6.016   5.823   0.477
 5123WAT     H129320   6.045   5.907   0.441
 5123WAT     H229321   6.097   5.774   0.491
 5124WAT      O29322   2.561   2.636   8.308
 5124WAT     H129323   2.571   2.546   8.275
 5124WAT     H229324   2.637   2.683   8.274
 5125WAT      O29325   4.971   3.705   2.476
 5125WAT     H129326   4.991   3.659   2.395
 5125WAT     H229327   4.968   3.797   2.451
 5126WAT      O29328   4.697   2.261   2.430
 5126WAT     H129329   4.743   2.178   2.415
 5126WAT     H229330   4.763   2.317   2.471
 5127WAT      O29331   2.603   4.194   9.980
 5127WAT     H129332   2.648   4.243  10.048
 5127WAT     H229333   2.510   4.208   9.996
 5128WAT      O29334   2.093   4.352  11.409
 5128WAT     H129335   2.084   4.330  11.316
 5128WAT     H229336   2.004   4.352  11.443
 5129WAT      O29337   3.965   3.430   1.700
 5129WAT     H129338   4.000   3.347   1.669
 5129WAT     H229339   3.977   3.490   1.626
 5130WAT      O29340   4.217   1.817   7.322
 5130WAT     H129341   4.177   1.864   7.395
 5130WAT     H229342   4.311   1.830   7.334
 5131WAT      O29343   4.527   4.383   9.681
 5131WAT     H129344   4.540   4.354   9.591
 5131WAT     H229345   4.474   4.314   9.721
 5132WAT      O29346   4.996   2.278  10.627
 5132WAT     H129347   4.988   2.188  10.595
 5132WAT     H229348   4.972   2.333  10.553
 5133WAT      O29349   5.010   3.860   4.111
 5133WAT     H129350   4.928   3.873   4.062
 5133WAT     H229351   5.001   3.918   4.187
 5134WAT      O29352   0.465   0.858   3.251
 5134WAT     H129353   0.447   0.879   3.159
 5134WAT     H229354   0.477   0.943   3.294
 5135WAT      O29355   1.800   1.405  11.684
 5135WAT     H129356   1.712   1.372  11.703
 5135WAT     H229357   1.859   1.349  11.734
 5136WAT      O29358   0.411   6.056   2.211
 5136WAT     H129359   0.499   6.041   2.246
 5136WAT     H229360   0.423   6.125   2.145
 5137WAT      O29361   1.521   4.887   0.429
 5137WAT     H129362   1.466   4.945   0.377
 5137WAT     H229363   1.607   4.891   0.387
 5138WAT      O29364   1.294   2.666   4.198
 5138WAT     H129365   1.346   2.631   4.271
 5138WAT     H229366   1.211   2.692   4.238
 5139WAT      O29367   1.535   1.857   0.171
 5139WAT     H129368   1.533   1.816   0.084
 5139WAT     H229369   1.483   1.798   0.226
 5140WAT      O29370   3.152   2.628  11.668
 5140WAT     H129371   3.116   2.628  11.580
 5140WAT     H229372   3.096   2.689  11.717
 5141WAT      O29373   4.464   5.373   0.486
 5141WAT     H129374   4.443   5.441   0.550
 5141WAT     H229375   4.501   5.420   0.412
 5142WAT      O29376   2.960   2.939   7.747
 5142WAT     H129377   2.978   2.845   7.735
 5142WAT     H229378   3.029   2.983   7.697
 5143WAT      O29379   1.328   1.349   9.468
 5143WAT     H129380   1.413   1.375   9.502
 5143WAT     H229381   1.348   1.288   9.397
 5144WAT      O29382   1.881   4.876   0.732
 5144WAT     H129383   1.932   4.837   0.662
 5144WAT     H229384   1.945   4.923   0.786
 5145WAT      O29385   3.933   2.333   9.411
 5145WAT     H129386   3.869   2.392   9.372
 5145WAT     H229387   3.882   2.278   9.471
 5146WAT      O29388   1.792   3.959  11.904
 5146WAT     H129389   1.755   4.006  11.979
 5146WAT     H229390   1.885   3.984  11.904
 5147WAT      O29391   3.162   4.321   1.055
 5147WAT     H129392   3.193   4.230   1.052
 5147WAT     H229393   3.082   4.321   1.003
 5148WAT      O29394   0.301   3.238  10.953
 5148WAT     H129395   0.387   3.265  10.985
 5148WAT     H229396   0.298   3.273  10.863
 5149WAT      O29397   4.813   0.753   4.019
 5149WAT     H129398   4.813   0.662   3.989
 5149WAT     H229399   4.746   0.755   4.087
 5150WAT      O29400   2.561   5.877  10.401
 5150WAT     H129401   2.508   5.922  10.466
 5150WAT     H229402   2.501   5.860  10.329
 5151WAT      O29403   3.921   1.579   2.290
 5151WAT     H129404   3.895   1.634   2.217
 5151WAT     H229405   3.991   1.628   2.333
 5152WAT      O29406   0.399   6.033  12.598
 5152WAT     H129407   0.383   5.943  12.573
 5152WAT     H229408   0.433   6.075  12.519
 5153WAT      O29409   5.610   5.438   0.931
 5153WAT     H129410   5.634   5.386   1.008
 5153WAT     H229411   5.586   5.373   0.865
 5154WAT      O29412   0.698   1.192   9.650
 5154WAT     H129413   0.662   1.112   9.611
 5154WAT     H229414   0.639   1.212   9.723
 5155WAT      O29415   0.383   2.149   9.645
 5155WAT     H129416   0.324   2.150   9.570
 5155WAT     H229417   0.388   2.057   9.671
 5156WAT      O29418   5.094   2.950   2.294
 5156WAT     H129419   5.120   2.882   2.231
 5156WAT     H229420   5.005   2.974   2.267
 5157WAT      O29421   2.326   1.617   4.731
 5157WAT     H129422   2.384   1.634   4.657
 5157WAT     H229423   2.373   1.555   4.786
 5158WAT      O29424   0.208   5.653   8.781
 5158WAT     H129425   0.142   5.720   8.760
 5158WAT     H229426   0.276   5.665   8.714
 5159WAT      O29427   1.212   3.276   8.887
 5159WAT     H129428   1.226   3.191   8.846
 5159WAT     H229429   1.235   3.340   8.820
 5160WAT      O29430   4.798   4.438   0.032
 5160WAT     H129431   4.841   4.494   0.097
 5160WAT     H229432   4.809   4.484  -0.051
 5161WAT      O29433  -0.005   5.868   8.836
 5161WAT     H129434  -0.026   5.780   8.865
 5161WAT     H229435   0.037   5.909   8.912
 5162WAT      O29436   4.541   3.566   4.048
 5162WAT     H129437   4.624   3.557   4.002
 5162WAT     H229438   4.548   3.506   4.123
 5163WAT      O29439   3.030   4.552   9.998
 5163WAT     H129440   3.065   4.639   9.980
 5163WAT     H229441   3.100   4.507  10.046
 5164WAT      O29442   4.098   1.223   8.219
 5164WAT     H129443   4.081   1.135   8.187
 5164WAT     H229444   4.024   1.243   8.276
 5165WAT      O29445   1.858   5.055   2.157
 5165WAT     H129446   1.800   4.993   2.113
 5165WAT     H229447   1.884   5.116   2.088
 5166WAT      O29448   1.735   1.691   4.567
 5166WAT     H129449   1.806   1.753   4.584
 5166WAT     H229450   1.679   1.735   4.502
 5167WAT      O29451   2.167   1.583   3.906
 5167WAT     H129452   2.123   1.591   3.821
 5167WAT     H229453   2.246   1.637   3.897
 5168WAT      O29454   4.907   4.131  12.138
 5168WAT     H129455   4.882   4.082  12.217
 5168WAT     H229456   4.921   4.063  12.072
 5169WAT      O29457   1.190   5.995  12.454
 5169WAT     H129458   1.184   5.982  12.549
 5169WAT     H229459   1.254   5.930  12.425
 5170WAT      O29460   5.293   1.674  11.715
 5170WAT     H129461   5.305   1.769  11.715
 5170WAT     H229462   5.286   1.651  11.808
 5171WAT      O29463   1.432   1.206   8.750
 5171WAT     H129464   1.508   1.237   8.800
 5171WAT     H229465   1.423   1.268   8.678
 5172WAT      O29466   1.013   5.682   5.125
 5172WAT     H129467   0.962   5.604   5.105
 5172WAT     H229468   0.952   5.755   5.112
 5173WAT      O29469   5.321   1.227   1.598
 5173WAT     H129470   5.404   1.273   1.608
 5173WAT     H229471   5.258   1.295   1.577
 5174WAT      O29472   4.881   4.694   1.280
 5174WAT     H129473   4.943   4.766   1.269
 5174WAT     H229474   4.932   4.624   1.321
 5175WAT      O29475   5.080   2.101   1.017
 5175WAT     H129476   5.079   2.006   1.024
 5175WAT     H229477   5.022   2.120   0.943
 5176WAT      O29478   2.441   1.618   3.404
 5176WAT     H129479   2.435   1.578   3.491
 5176WAT     H229480   2.364   1.673   3.397
 5177WAT      O29481   3.257   3.429  10.711
 5177WAT     H129482   3.202   3.499  10.677
 5177WAT     H229483   3.230   3.420  10.803
 5178WAT      O29484   4.826   3.724   0.083
 5178WAT     H129485   4.887   3.793   0.058
 5178WAT     H229486   4.762   3.767   0.140
 5179WAT      O29487   5.092   3.688  11.480
 5179WAT     H129488   5.123   3.661  11.394
 5179WAT     H229489   5.136   3.771  11.496
 5180WAT      O29490   4.344   4.570   3.447
 5180WAT     H129491   4.380   4.534   3.528
 5180WAT     H229492   4.389   4.654   3.436
 5181WAT      O29493   0.236   2.959  12.278
 5181WAT     H129494   0.168   2.908  12.321
 5181WAT     H229495   0.292   2.989  12.349
 5182WAT      O29496   6.264   1.186   4.765
 5182WAT     H129497   6.195   1.177   4.832
 5182WAT     H229498   6.218   1.218   4.688
 5183WAT      O29499   2.835   0.111   2.477
 5183WAT     H129500   2.914   0.146   2.518
 5183WAT     H229501   2.862   0.026   2.442
 5184WAT      O29502   3.014   1.761   3.841
 5184WAT     H129503   2.948   1.790   3.778
 5184WAT     H229504   3.047   1.679   3.804
 5185WAT      O29505   2.824   5.330  10.581
 5185WAT     H129506   2.830   5.243  10.541
 5185WAT     H229507   2.730   5.344  10.595
 5186WAT      O29508   0.749   5.160  12.209
 5186WAT     H129509   0.679   5.152  12.144
 5186WAT     H229510   0.828   5.133  12.162
 5187WAT      O29511   1.684   1.731   1.440
 5187WAT     H129512   1.725   1.758   1.522
 5187WAT     H229513   1.590   1.743   1.454
 5188WAT      O29514   4.335   2.727   3.741
 5188WAT     H129515   4.394   2.803   3.739
 5188WAT     H229516   4.364   2.676   3.817
 5189WAT      O29517   1.716   2.498   4.203
 5189WAT     H129518   1.713   2.488   4.298
 5189WAT     H229519   1.799   2.458   4.177
 5190WAT      O29520   4.311   4.687   3.796
 5190WAT     H129521   4.289   4.767   3.843
 5190WAT     H229522   4.407   4.685   3.794
 5191WAT      O29523   2.346   0.904   7.314
 5191WAT     H129524   2.363   0.997   7.324
 5191WAT     H229525   2.282   0.884   7.381
 5192WAT      O29526   2.878   4.990   3.781
 5192WAT     H129527   2.886   4.901   3.747
 5192WAT     H229528   2.852   5.042   3.704
 5193WAT      O29529   0.714   4.396   9.990
 5193WAT     H129530   0.805   4.392  10.018
 5193WAT     H229531   0.664   4.383  10.071
 5194WAT      O29532   5.822   5.655   0.361
 5194WAT     H129533   5.857   5.577   0.318
 5194WAT     H229534   5.896   5.692   0.409
 5195WAT      O29535   0.932   4.565  10.655
 5195WAT     H129536   1.016   4.549  10.613
 5195WAT     H229537   0.884   4.482  10.647
 5196WAT      O29538   0.362   3.298  11.741
 5196WAT     H129539   0.280   3.301  11.790
 5196WAT     H229540   0.346   3.233  11.672
 5197WAT      O29541   4.667   4.023  11.365
 5197WAT     H129542   4.666   4.098  11.425
 5197WAT     H229543   4.732   4.047  11.299
 5198WAT      O29544   4.958   1.974  10.079
 5198WAT     H129545   5.048   1.995  10.054
 5198WAT     H229546   4.910   1.973   9.997
 5199WAT      O29547   0.817   1.980   2.717
 5199WAT     H129548   0.733   1.952   2.681
 5199WAT     H229549   0.796   2.017   2.802
 5200WAT      O29550   3.936   0.633   4.393
 5200WAT     H129551   3.902   0.544   4.405
 5200WAT     H229552   3.988   0.650   4.471
 5201WAT      O29553   2.638   1.730   1.190
 5201WAT     H129554   2.580   1.654   1.199
 5201WAT     H229555   2.584   1.797   1.148
 5202WAT      O29556   3.273   4.186   2.745
 5202WAT     H129557   3.362   4.152   2.744
 5202WAT     H229558   3.282   4.277   2.717
 5203WAT      O29559   3.708   1.132  11.346
 5203WAT     H129560   3.784   1.151  11.401
 5203WAT     H229561   3.640   1.192  11.376
 5204WAT      O29562   3.456   5.689   1.646
 5204WAT     H129563   3.451   5.693   1.742
 5204WAT     H229564   3.497   5.604   1.628
 5205WAT      O29565   4.421   4.380   9.406
 5205WAT     H129566   4.497   4.322   9.418
 5205WAT     H229567   4.358   4.328   9.357
 5206WAT      O29568   6.043   6.131   0.536
 5206WAT     H129569   6.022   6.107   0.446
 5206WAT     H229570   5.959   6.124   0.583
 5207WAT      O29571   3.792   3.278   9.159
 5207WAT     H129572   3.718   3.248   9.213
 5207WAT     H229573   3.861   3.215   9.177
 5208WAT      O29574   3.866   5.073   0.488
 5208WAT     H129575   3.895   4.995   0.535
 5208WAT     H229576   3.931   5.085   0.419
 5209WAT      O29577   5.381   5.533   1.408
 5209WAT     H129578   5.371   5.590   1.331
 5209WAT     H229579   5.305   5.476   1.405
 5210WAT      O29580   2.763   4.998  10.237
 5210WAT     H129581   2.691   4.936  10.226
 5210WAT     H229582   2.728   5.066  10.295
 5211WAT      O29583   4.401   4.576  11.680
 5211WAT     H129584   4.353   4.584  11.597
 5211WAT     H229585   4.364   4.497  11.721
 5212WAT      O29586   1.456   3.755   0.157
 5212WAT     H129587   1.398   3.682   0.177
 5212WAT     H229588   1.435   3.821   0.223
 5213WAT      O29589   1.975  -0.022  10.691
 5213WAT     H129590   1.896   0.031  10.698
 5213WAT     H229591   2.020   0.011  10.613
 5214WAT      O29592   1.719   3.246  11.565
 5214WAT     H129593   1.664   3.318  11.535
 5214WAT     H229594   1.803   3.259  11.519
 5215WAT      O29595   1.639   1.535   3.393
 5215WAT     H129596   1.719   1.556   3.345
 5215WAT     H229597   1.656   1.449   3.431
 5216WAT      O29598   1.709   2.550   1.810
 5216WAT     H129599   1.670   2.502   1.737
 5216WAT     H229600   1.677   2.640   1.800
 5217WAT      O29601   2.037   0.847   2.830
 5217WAT     H129602   2.045   0.939   2.806
 5217WAT     H229603   1.944   0.827   2.818
 5218WAT      O29604   4.410   1.562   0.155
 5218WAT     H129605   4.341   1.555   0.090
 5218WAT     H229606   4.367   1.540   0.238
 5219WAT      O29607   2.407   5.686   0.422
 5219WAT     H129608   2.461   5.765   0.427
 5219WAT     H229609   2.429   5.637   0.501
 5220WAT      O29610   2.785   0.680  11.171
 5220WAT     H129611   2.797   0.773  11.157
 5220WAT     H229612   2.711   0.656  11.115
 5221WAT      O29613   2.380   1.157   2.339
 5221WAT     H129614   2.313   1.107   2.292
 5221WAT     H229615   2.416   1.094   2.402
 5222WAT      O29616   3.116   6.028   3.490
 5222WAT     H129617   3.083   5.950   3.445
 5222WAT     H229618   3.211   6.021   3.485
 5223WAT      O29619   4.186   0.925   3.206
 5223WAT     H129620   4.216   0.862   3.141
 5223WAT     H229621   4.149   0.872   3.276
 5224WAT      O29622   4.632   0.474   3.286
 5224WAT     H129623   4.592   0.518   3.211
 5224WAT     H229624   4.653   0.544   3.347
 5225WAT      O29625   5.200   4.737   0.980
 5225WAT     H129626   5.283   4.775   1.008
 5225WAT     H229627   5.152   4.810   0.941
 5226WAT      O29628   5.148   2.998  11.736
 5226WAT     H129629   5.068   2.946  11.732
 5226WAT     H229630   5.119   3.084  11.765
 5227WAT      O29631   2.062   1.550   3.644
 5227WAT     H129632   1.977   1.517   3.676
 5227WAT     H229633   2.114   1.471   3.632
 5228WAT      O29634   5.019   5.884   1.557
 5228WAT     H129635   5.106   5.846   1.568
 5228WAT     H229636   4.958   5.811   1.568
 5229WAT      O29637   5.407   5.910  11.896
 5229WAT     H129638   5.391   5.974  11.826
 5229WAT     H229639   5.405   5.825  11.851
 5230WAT      O29640   3.137   1.728   9.478
 5230WAT     H129641   3.207   1.792   9.491
 5230WAT     H229642   3.160   1.684   9.397
 5231WAT      O29643   4.249   6.082   1.645
 5231WAT     H129644   4.167   6.064   1.692
 5231WAT     H229645   4.245   6.175   1.624
 5232WAT      O29646   5.515   2.731  10.699
 5232WAT     H129647   5.574   2.666  10.664
 5232WAT     H229648   5.506   2.709  10.792
 5233WAT      O29649   4.613   3.226   0.740
 5233WAT     H129650   4.706   3.201   0.740
 5233WAT     H229651   4.569   3.157   0.691
 5234WAT      O29652   5.042   1.614   3.295
 5234WAT     H129653   5.062   1.529   3.255
 5234WAT     H229654   5.113   1.629   3.356
 5235WAT      O29655   5.290   6.049   0.318
 5235WAT     H129656   5.336   6.125   0.353
 5235WAT     H229657   5.259   6.002   0.395
 5236WAT      O29658   5.122   2.697  10.216
 5236WAT     H129659   5.104   2.651  10.133
 5236WAT     H229660   5.158   2.781  10.189
 5237WAT      O29661   1.386   5.695   0.536
 5237WAT     H129662   1.344   5.619   0.574
 5237WAT     H229663   1.325   5.725   0.468
 5238WAT      O29664   6.002   5.386   9.180
 5238WAT     H129665   5.964   5.473   9.197
 5238WAT     H229666   6.097   5.402   9.175
 5239WAT      O29667   2.911   3.912  10.603
 5239WAT     H129668   2.873   3.871  10.680
 5239WAT     H229669   2.987   3.857  10.581
 5240WAT      O29670   6.080   3.677  11.283
 5240WAT     H129671   6.054   3.734  11.211
 5240WAT     H229672   5.999   3.635  11.312
 5241WAT      O29673   0.850   4.052   1.246
 5241WAT     H129674   0.793   3.977   1.266
 5241WAT     H229675   0.902   4.022   1.172
 5242WAT      O29676   1.215   3.102   0.602
 5242WAT     H129677   1.176   3.179   0.643
 5242WAT     H229678   1.142   3.060   0.557
 5243WAT      O29679   4.076   2.642   3.902
 5243WAT     H129680   4.154   2.618   3.853
 5243WAT     H229681   4.037   2.558   3.926
 5244WAT      O29682   1.771   2.817   0.420
 5244WAT     H129683   1.725   2.891   0.379
 5244WAT     H229684   1.853   2.810   0.372
 5245WAT      O29685   4.528   1.160  12.630
 5245WAT     H129686   4.487   1.117  12.556
 5245WAT     H229687   4.620   1.133  12.626
 5246WAT      O29688   3.935   4.665   3.779
 5246WAT     H129689   3.878   4.602   3.735
 5246WAT     H229690   4.024   4.633   3.762
 5247WAT      O29691   1.631   5.216  12.099
 5247WAT     H129692   1.545   5.174  12.096
 5247WAT     H229693   1.655   5.212  12.192
 5248WAT      O29694   3.669   5.071   8.243
 5248WAT     H129695   3.581   5.068   8.207
 5248WAT     H229696   3.713   5.141   8.194
 5249WAT      O29697   5.426   0.940   2.023
 5249WAT     H129698   5.388   0.903   2.103
 5249WAT     H229699   5.521   0.932   2.036
 5250WAT      O29700   4.274   1.733   9.712
 5250WAT     H129701   4.342   1.767   9.654
 5250WAT     H229702   4.289   1.779   9.795
 5251WAT      O29703   5.215   2.629   1.011
 5251WAT     H129704   5.305   2.621   0.978
 5251WAT     H229705   5.177   2.543   0.997
 5252WAT      O29706   4.365   0.357  10.851
 5252WAT     H129707   4.357   0.436  10.797
 5252WAT     H229708   4.355   0.284  10.789
 5253WAT      O29709   4.649   1.992  11.858
 5253WAT     H129710   4.739   1.995  11.826
 5253WAT     H229711   4.624   2.083  11.871
 5254WAT      O29712   4.158   0.986  11.861
 5254WAT     H129713   4.187   0.906  11.817
 5254WAT     H229714   4.234   1.045  11.854
 5255WAT      O29715   5.070   4.271  11.829
 5255WAT     H129716   5.096   4.231  11.912
 5255WAT     H229717   5.069   4.199  11.766
 5256WAT      O29718   0.901   1.605  12.283
 5256WAT     H129719   0.901   1.700  12.274
 5256WAT     H229720   0.936   1.572  12.200
 5257WAT      O29721   4.458   6.106   0.490
 5257WAT     H129722   4.403   6.165   0.541
 5257WAT     H229723   4.519   6.164   0.443
 5258WAT      O29724   3.243   0.573  12.398
 5258WAT     H129725   3.262   0.667  12.393
 5258WAT     H229726   3.148   0.568  12.409
 5259WAT      O29727   4.017   5.345  12.659
 5259WAT     H129728   4.009   5.257  12.622
 5259WAT     H229729   4.084   5.337  12.727
 5260WAT      O29730   1.381   1.927   3.156
 5260WAT     H129731   1.397   2.015   3.189
 5260WAT     H229732   1.452   1.913   3.093
 5261WAT      O29733   1.303   4.629  12.244
 5261WAT     H129734   1.298   4.697  12.312
 5261WAT     H229735   1.237   4.565  12.270
 5262WAT      O29736   6.054   0.155   3.724
 5262WAT     H129737   6.118   0.165   3.795
 5262WAT     H229738   6.024   0.065   3.731
 5263WAT      O29739   0.331   2.780  10.621
 5263WAT     H129740   0.355   2.867  10.653
 5263WAT     H229741   0.330   2.725  10.699
 5264WAT      O29742   0.376   4.119   0.786
 5264WAT     H129743   0.296   4.122   0.733
 5264WAT     H229744   0.367   4.040   0.839
 5265WAT      O29745   0.852   4.802   0.457
 5265WAT     H129746   0.807   4.734   0.406
 5265WAT     H229747   0.808   4.802   0.541
 5266WAT      O29748   4.169   2.873   3.301
 5266WAT     H129749   4.085   2.828   3.307
 5266WAT     H229750   4.225   2.828   3.363
 5267WAT      O29751   2.112   4.337   3.824
 5267WAT     H129752   2.076   4.393   3.893
 5267WAT     H229753   2.051   4.347   3.751
 5268WAT      O29754   5.621   4.301  12.434
 5268WAT     H129755   5.641   4.386  12.473
 5268WAT     H229756   5.700   4.249  12.448
 5269WAT      O29757   4.756   5.268   0.013
 5269WAT     H129758   4.706   5.255   0.094
 5269WAT     H229759   4.780   5.360   0.015
 5270WAT      O29760   3.412   3.303   9.114
 5270WAT     H129761   3.457   3.220   9.095
 5270WAT     H229762   3.438   3.324   9.204
 5271WAT      O29763   3.029   0.086   1.694
 5271WAT     H129764   3.023   0.104   1.788
 5271WAT     H229765   3.075   0.002   1.688
 5272WAT      O29766   4.533   0.969   9.626
 5272WAT     H129767   4.517   1.063   9.616
 5272WAT     H229768   4.627   0.963   9.645
 5273WAT      O29769   5.927   4.201   0.846
 5273WAT     H129770   5.851   4.152   0.815
 5273WAT     H229771   6.000   4.140   0.836
 5274WAT      O29772   2.803   2.334  11.120
 5274WAT     H129773   2.715   2.305  11.146
 5274WAT     H229774   2.799   2.340  11.025
 5275WAT      O29775   1.565   1.527   3.898
 5275WAT     H129776   1.512   1.471   3.955
 5275WAT     H229777   1.503   1.563   3.835
 5276WAT      O29778   3.674   5.732   1.288
 5276WAT     H129779   3.719   5.795   1.344
 5276WAT     H229780   3.592   5.713   1.334
 5277WAT      O29781   5.662   4.087  12.006
 5277WAT     H129782   5.581   4.133  12.029
 5277WAT     H229783   5.643   4.044  11.922
 5278WAT      O29784   1.292   3.255   0.246
 5278WAT     H129785   1.197   3.263   0.239
 5278WAT     H229786   1.308   3.161   0.259
 5279WAT      O29787   1.452   3.747   0.702
 5279WAT     H129788   1.527   3.799   0.673
 5279WAT     H229789   1.403   3.730   0.621
 5280WAT      O29790   5.122   2.618   2.827
 5280WAT     H129791   5.037   2.653   2.800
 5280WAT     H229792   5.100   2.533   2.867
 5281WAT      O29793   3.185   4.137   3.397
 5281WAT     H129794   3.135   4.056   3.398
 5281WAT     H229795   3.199   4.158   3.490
 5282WAT      O29796   4.165   4.190   7.474
 5282WAT     H129797   4.210   4.216   7.394
 5282WAT     H229798   4.084   4.242   7.473
 5283WAT      O29799   2.381   1.505  10.791
 5283WAT     H129800   2.475   1.492  10.791
 5283WAT     H229801   2.345   1.420  10.818
 5284WAT      O29802   4.460   5.626   8.562
 5284WAT     H129803   4.449   5.641   8.468
 5284WAT     H229804   4.409   5.547   8.579
 5285WAT      O29805   1.834   2.065   8.931
 5285WAT     H129806   1.845   2.145   8.983
 5285WAT     H229807   1.754   2.081   8.881
 5286WAT      O29808   3.193   6.086   1.678
 5286WAT     H129809   3.225   6.070   1.767
 5286WAT     H229810   3.220   6.009   1.628
 5287WAT      O29811   1.788   5.197   0.162
 5287WAT     H129812   1.867   5.151   0.135
 5287WAT     H229813   1.773   5.262   0.094
 5288WAT      O29814   0.764   2.259   4.054
 5288WAT     H129815   0.818   2.201   4.109
 5288WAT     H229816   0.687   2.277   4.108
 5289WAT      O29817   3.914   0.515  11.409
 5289WAT     H129818   3.889   0.469  11.329
 5289WAT     H229819   3.966   0.590  11.380
 5290WAT      O29820   3.480   3.491   4.401
 5290WAT     H129821   3.560   3.461   4.358
 5290WAT     H229822   3.439   3.410   4.433
 5291WAT      O29823   0.978   3.011   1.341
 5291WAT     H129824   0.981   2.971   1.254
 5291WAT     H229825   0.952   2.940   1.400
 5292WAT      O29826   0.298   0.896  10.873
 5292WAT     H129827   0.373   0.837  10.877
 5292WAT     H229828   0.224   0.844  10.904
 5293WAT      O29829   0.160   1.934   8.877
 5293WAT     H129830   0.112   1.942   8.795
 5293WAT     H229831   0.114   1.865   8.925
 5294WAT      O29832   1.285   3.657   2.075
 5294WAT     H129833   1.287   3.713   1.998
 5294WAT     H229834   1.202   3.609   2.069
 5295WAT      O29835   2.174   1.314   3.650
 5295WAT     H129836   2.140   1.273   3.730
 5295WAT     H229837   2.210   1.241   3.600
 5296WAT      O29838   3.364   1.952   2.747
 5296WAT     H129839   3.367   2.047   2.758
 5296WAT     H229840   3.368   1.938   2.653
 5297WAT      O29841   3.354   0.983   0.232
 5297WAT     H129842   3.381   1.057   0.286
 5297WAT     H229843   3.271   0.955   0.270
 5298WAT      O29844   3.789   1.224   0.254
 5298WAT     H129845   3.871   1.259   0.289
 5298WAT     H229846   3.750   1.176   0.328
 5299WAT      O29847   0.249   5.881   2.092
 5299WAT     H129848   0.307   5.930   2.150
 5299WAT     H229849   0.271   5.790   2.108
 5300WAT      O29850   0.639   1.704   9.342
 5300WAT     H129851   0.665   1.611   9.341
 5300WAT     H229852   0.544   1.702   9.351
 5301WAT      O29853   5.062   6.124   1.812
 5301WAT     H129854   5.007   6.046   1.810
 5301WAT     H229855   5.150   6.092   1.796
 5302WAT      O29856   0.261   1.453  11.228
 5302WAT     H129857   0.266   1.357  11.236
 5302WAT     H229858   0.201   1.467  11.155
 5303WAT      O29859   3.231   5.777   0.380
 5303WAT     H129860   3.210   5.826   0.460
 5303WAT     H229861   3.262   5.843   0.318
 5304WAT      O29862   1.706   5.958  12.579
 5304WAT     H129863   1.744   5.912  12.654
 5304WAT     H229864   1.670   6.038  12.616
 5305WAT      O29865   1.153   2.079  10.363
 5305WAT     H129866   1.201   2.000  10.387
 5305WAT     H229867   1.069   2.047  10.330
 5306WAT      O29868   0.303   5.438  11.854
 5306WAT     H129869   0.233   5.373  11.850
 5306WAT     H229870   0.369   5.398  11.910
 5307WAT      O29871   3.013   4.714   7.988
 5307WAT     H129872   2.945   4.649   7.966
 5307WAT     H229873   3.084   4.662   8.025
 5308WAT      O29874   4.323   1.461   2.764
 5308WAT     H129875   4.326   1.408   2.843
 5308WAT     H229876   4.404   1.511   2.764
 5309WAT      O29877   2.990   6.136  10.022
 5309WAT     H129878   3.068   6.172  10.066
 5309WAT     H229879   2.996   6.169   9.933
 5310WAT      O29880   2.791   0.367   8.433
 5310WAT     H129881   2.769   0.310   8.506
 5310WAT     H229882   2.815   0.450   8.475
 5311WAT      O29883   3.800   3.276   3.235
 5311WAT     H129884   3.861   3.324   3.179
 5311WAT     H229885   3.746   3.345   3.275
 5312WAT      O29886   4.672   5.767   2.397
 5312WAT     H129887   4.593   5.746   2.346
 5312WAT     H229888   4.708   5.845   2.355
 5313WAT      O29889   2.498   4.605  12.510
 5313WAT     H129890   2.526   4.674  12.450
 5313WAT     H229891   2.577   4.553  12.526
 5314WAT      O29892   6.004   1.614   8.041
 5314WAT     H129893   5.920   1.604   7.995
 5314WAT     H229894   6.069   1.617   7.971
 5315WAT      O29895   2.878   2.598  11.713
 5315WAT     H129896   2.920   2.513  11.724
 5315WAT     H229897   2.797   2.580  11.666
 5316WAT      O29898   2.416   0.514   2.310
 5316WAT     H129899   2.337   0.533   2.259
 5316WAT     H229900   2.468   0.457   2.253
 5317WAT      O29901   0.418   3.222   8.646
 5317WAT     H129902   0.492   3.162   8.639
 5317WAT     H229903   0.409   3.239   8.740
 5318WAT      O29904   5.554   3.350  11.671
 5318WAT     H129905   5.607   3.308  11.604
 5318WAT     H229906   5.589   3.316  11.754
 5319WAT      O29907   3.904   4.851   1.023
 5319WAT     H129908   3.994   4.881   1.010
 5319WAT     H229909   3.888   4.861   1.116
 5320WAT      O29910   3.803   3.993   0.113
 5320WAT     H129911   3.749   3.920   0.083
 5320WAT     H229912   3.745   4.044   0.170
 5321WAT      O29913   4.655   0.055   8.122
 5321WAT     H129914   4.687   0.103   8.045
 5321WAT     H229915   4.627   0.123   8.182
 5322WAT      O29916   4.083   3.135  11.629
 5322WAT     H129917   4.043   3.222  11.640
 5322WAT     H229918   4.177   3.152  11.629
 5323WAT      O29919   1.597   6.091   3.871
 5323WAT     H129920   1.512   6.135   3.870
 5323WAT     H229921   1.659   6.159   3.895
 5324WAT      O29922   3.925   2.023   0.988
 5324WAT     H129923   3.953   1.965   0.918
 5324WAT     H229924   3.831   2.003   0.999
 5325WAT      O29925   5.406   3.742   4.145
 5325WAT     H129926   5.461   3.810   4.106
 5325WAT     H229927   5.465   3.692   4.201
 5326WAT      O29928   1.125   0.709   0.794
 5326WAT     H129929   1.206   0.755   0.770
 5326WAT     H229930   1.064   0.779   0.817
 5327WAT      O29931   3.289   2.183   0.796
 5327WAT     H129932   3.343   2.215   0.724
 5327WAT     H229933   3.322   2.094   0.813
 5328WAT      O29934   1.551   3.269   2.085
 5328WAT     H129935   1.516   3.345   2.132
 5328WAT     H229936   1.630   3.302   2.042
 5329WAT      O29937   2.612   0.933  11.089
 5329WAT     H129938   2.597   0.910  11.181
 5329WAT     H229939   2.524   0.945  11.054
 5330WAT      O29940   3.198   0.068  11.401
 5330WAT     H129941   3.155   0.095  11.482
 5330WAT     H229942   3.277   0.022  11.431
 5331WAT      O29943   1.370   5.023   1.716
 5331WAT     H129944   1.327   4.938   1.713
 5331WAT     H229945   1.418   5.029   1.634
 5332WAT      O29946   1.252   6.058   9.688
 5332WAT     H129947   1.311   6.073   9.762
 5332WAT     H229948   1.165   6.052   9.728
 5333WAT      O29949   2.723   1.663  12.578
 5333WAT     H129950   2.739   1.679  12.485
 5333WAT     H229951   2.718   1.567  12.585
 5334WAT      O29952   0.862   6.133  10.945
 5334WAT     H129953   0.799   6.194  10.983
 5334WAT     H229954   0.830   6.117  10.856
 5335WAT      O29955   1.205   1.007   3.373
 5335WAT     H129956   1.278   1.008   3.435
 5335WAT     H229957   1.195   1.098   3.346
 5336WAT      O29958   5.885   3.846  11.135
 5336WAT     H129959   5.815   3.873  11.076
 5336WAT     H229960   5.906   3.757  11.109
 5337WAT      O29961   3.843   2.407  10.310
 5337WAT     H129962   3.795   2.474  10.358
 5337WAT     H229963   3.780   2.336  10.299
 5338WAT      O29964   4.222   5.552   0.276
 5338WAT     H129965   4.210   5.504   0.358
 5338WAT     H229966   4.133   5.567   0.244
 5339WAT      O29967   2.146   1.152   9.761
 5339WAT     H129968   2.059   1.135   9.795
 5339WAT     H229969   2.174   1.069   9.723
 5340WAT      O29970   1.270   0.392   7.546
 5340WAT     H129971   1.349   0.392   7.601
 5340WAT     H229972   1.244   0.484   7.543
 5341WAT      O29973   6.187   5.732  11.698
 5341WAT     H129974   6.107   5.681  11.713
 5341WAT     H229975   6.239   5.678  11.638
 5342WAT      O29976   4.841   5.134  10.429
 5342WAT     H129977   4.926   5.130  10.474
 5342WAT     H229978   4.799   5.050  10.450
 5343WAT      O29979   0.668   5.825  11.701
 5343WAT     H129980   0.634   5.821  11.611
 5343WAT     H229981   0.655   5.916  11.728
 5344WAT      O29982   5.851   2.291   8.086
 5344WAT     H129983   5.819   2.227   8.022
 5344WAT     H229984   5.894   2.358   8.033
 5345WAT      O29985   4.099   0.381   8.411
 5345WAT     H129986   4.101   0.476   8.403
 5345WAT     H229987   4.029   0.363   8.473
 5346WAT      O29988   1.213   1.140  12.564
 5346WAT     H129989   1.222   1.136  12.468
 5346WAT     H229990   1.300   1.166  12.594
 5347WAT      O29991   3.394   2.901  10.426
 5347WAT     H129992   3.394   2.923  10.333
 5347WAT     H229993   3.471   2.846  10.437
 5348WAT      O29994   0.398   0.654   2.840
 5348WAT     H129995   0.417   0.663   2.934
 5348WAT     H229996   0.305   0.629   2.837
 5349WAT      O29997   6.159   1.860   8.340
 5349WAT     H129998   6.081   1.856   8.396
 5349WAT     H229999   6.124   1.861   8.251
 5350WAT      O30000   2.568   1.129   1.830
 5350WAT     H130001   2.487   1.165   1.793
 5350WAT     H230002   2.604   1.075   1.760
 5351WAT      O30003   0.559   4.951  10.263
 5351WAT     H130004   0.544   5.004  10.185
 5351WAT     H230005   0.474   4.911  10.281
 5352WAT      O30006   0.111   6.064   4.077
 5352WAT     H130007   0.156   6.148   4.067
 5352WAT     H230008   0.128   6.039   4.168
 5353WAT      O30009   4.347   3.474  12.115
 5353WAT     H130010   4.309   3.409  12.056
 5353WAT     H230011   4.405   3.425  12.172
 5354WAT      O30012   1.019   5.848   3.634
 5354WAT     H130013   0.977   5.914   3.578
 5354WAT     H230014   0.946   5.800   3.673
 5355WAT      O30015   1.039   3.671   9.458
 5355WAT     H130016   0.990   3.625   9.526
 5355WAT     H230017   0.972   3.714   9.405
 5356WAT      O30018   1.987   4.089  10.318
 5356WAT     H130019   2.039   4.163  10.349
 5356WAT     H230020   2.051   4.026  10.285
 5357WAT      O30021   1.679   4.941  12.625
 5357WAT     H130022   1.596   4.982  12.650
 5357WAT     H230023   1.729   4.936  12.706
 5358WAT      O30024   1.811   5.579  11.538
 5358WAT     H130025   1.903   5.572  11.514
 5358WAT     H230026   1.810   5.566  11.633
 5359WAT      O30027   2.460   4.982  12.650
 5359WAT     H130028   2.382   4.950  12.696
 5359WAT     H230029   2.451   4.947  12.561
 5360WAT      O30030   5.256   5.521  11.240
 5360WAT     H130031   5.347   5.544  11.224
 5360WAT     H230032   5.209   5.550  11.162
 5361WAT      O30033   1.580   1.104  12.192
 5361WAT     H130034   1.497   1.086  12.148
 5361WAT     H230035   1.639   1.035  12.161
 5362WAT      O30036   6.185   1.290   1.514
 5362WAT     H130037   6.116   1.223   1.507
 5362WAT     H230038   6.244   1.269   1.442
 5363WAT      O30039   1.173   2.630  12.586
 5363WAT     H130040   1.094   2.624  12.639
 5363WAT     H230041   1.245   2.614  12.648
 5364WAT      O30042   5.890   3.252  11.646
 5364WAT     H130043   5.874   3.345  11.630
 5364WAT     H230044   5.917   3.248  11.738
 5365WAT      O30045   4.704   4.902   1.718
 5365WAT     H130046   4.774   4.958   1.752
 5365WAT     H230047   4.707   4.915   1.623
 5366WAT      O30048   1.455   4.905  11.615
 5366WAT     H130049   1.491   4.914  11.703
 5366WAT     H230050   1.380   4.964  11.614
 5367WAT      O30051  -0.015   5.661   0.529
 5367WAT     H130052   0.033   5.697   0.454
 5367WAT     H230053   0.006   5.568   0.528
 5368WAT      O30054   1.895   0.793   8.582
 5368WAT     H130055   1.813   0.744   8.587
 5368WAT     H230056   1.963   0.727   8.580
 5369WAT      O30057   4.324   4.544   2.249
 5369WAT     H130058   4.367   4.482   2.308
 5369WAT     H230059   4.389   4.561   2.180
 5370WAT      O30060   4.223   0.015   0.082
 5370WAT     H130061   4.211   0.104   0.114
 5370WAT     H230062   4.285  -0.025   0.143
 5371WAT      O30063   5.698   4.252   0.996
 5371WAT     H130064   5.792   4.269   1.000
 5371WAT     H230065   5.690   4.159   0.978
 5372WAT      O30066   1.806   2.400   9.133
 5372WAT     H130067   1.846   2.392   9.047
 5372WAT     H230068   1.755   2.481   9.128
 5373WAT      O30069   5.158   3.282  10.574
 5373WAT     H130070   5.136   3.210  10.632
 5373WAT     H230071   5.245   3.262  10.541
 5374WAT      O30072   3.035   1.260   9.975
 5374WAT     H130073   3.005   1.298  10.058
 5374WAT     H230074   3.072   1.334   9.928
 5375WAT      O30075   5.287   3.074   8.373
 5375WAT     H130076   5.228   3.058   8.299
 5375WAT     H230077   5.366   3.023   8.352
 5376WAT      O30078   1.920   4.476  11.833
 5376WAT     H130079   1.940   4.525  11.913
 5376WAT     H230080   1.948   4.535  11.762
 5377WAT      O30081   5.431   0.420  12.480
 5377WAT     H130082   5.515   0.448  12.516
 5377WAT     H230083   5.366   0.465  12.534
 5378WAT      O30084   0.532   6.092   0.779
 5378WAT     H130085   0.576   6.121   0.859
 5378WAT     H230086   0.439   6.087   0.803
 5379WAT      O30087   0.856   0.087   3.726
 5379WAT     H130088   0.914   0.108   3.799
 5379WAT     H230089   0.775   0.057   3.767
 5380WAT      O30090   0.679   4.234   9.379
 5380WAT     H130091   0.605   4.187   9.417
 5380WAT     H230092   0.650   4.257   9.291
 5381WAT      O30093   4.502   3.806   2.268
 5381WAT     H130094   4.432   3.869   2.285
 5381WAT     H230095   4.456   3.728   2.235
 5382WAT      O30096   2.305   0.210  11.948
 5382WAT     H130097   2.255   0.190  12.028
 5382WAT     H230098   2.333   0.301  11.960
 5383WAT      O30099   3.951   0.000   1.431
 5383WAT     H130100   3.967   0.012   1.524
 5383WAT     H230101   3.928   0.087   1.399
 5384WAT      O30102   2.423   1.196  10.400
 5384WAT     H130103   2.403   1.109  10.435
 5384WAT     H230104   2.387   1.195  10.312
 5385WAT      O30105   1.379   0.865   2.336
 5385WAT     H130106   1.341   0.832   2.254
 5385WAT     H230107   1.351   0.956   2.341
 5386WAT      O30108   1.913   4.449   0.799
 5386WAT     H130109   1.862   4.511   0.747
 5386WAT     H230110   1.989   4.429   0.745
 5387WAT      O30111   4.390   1.141   0.436
 5387WAT     H130112   4.403   1.177   0.349
 5387WAT     H230113   4.365   1.050   0.421
 5388WAT      O30114   3.782   4.659   0.638
 5388WAT     H130115   3.797   4.633   0.728
 5388WAT     H230116   3.865   4.641   0.594
 5389WAT      O30117   5.639   4.973   2.530
 5389WAT     H130118   5.729   4.980   2.497
 5389WAT     H230119   5.638   4.891   2.579
 5390WAT      O30120   3.097   5.766   2.034
 5390WAT     H130121   3.064   5.741   2.120
 5390WAT     H230122   3.163   5.832   2.052
 5391WAT      O30123   3.262   2.899   2.771
 5391WAT     H130124   3.219   2.872   2.690
 5391WAT     H230125   3.192   2.936   2.824
 5392WAT      O30126   5.636   3.387   9.441
 5392WAT     H130127   5.546   3.379   9.410
 5392WAT     H230128   5.627   3.415   9.532
 5393WAT      O30129   5.482   2.128   2.162
 5393WAT     H130130   5.451   2.038   2.175
 5393WAT     H230131   5.405   2.183   2.178
 5394WAT      O30132   4.284   0.275   0.690
 5394WAT     H130133   4.217   0.334   0.725
 5394WAT     H230134   4.335   0.330   0.630
 5395WAT      O30135   6.030   1.214   1.780
 5395WAT     H130136   6.023   1.121   1.803
 5395WAT     H230137   6.032   1.216   1.685
 5396WAT      O30138   2.007   2.182   8.708
 5396WAT     H130139   1.966   2.219   8.786
 5396WAT     H230140   2.100   2.184   8.726
 5397WAT      O30141   1.402   1.442   0.347
 5397WAT     H130142   1.387   1.469   0.256
 5397WAT     H230143   1.319   1.460   0.391
 5398WAT      O30144   4.133   0.660  11.371
 5398WAT     H130145   4.178   0.745  11.378
 5398WAT     H230146   4.199   0.602  11.333
 5399WAT      O30147   2.334   5.562   3.814
 5399WAT     H130148   2.398   5.626   3.844
 5399WAT     H230149   2.340   5.565   3.719
 5400WAT      O30150   3.618   3.495   8.581
 5400WAT     H130151   3.665   3.578   8.586
 5400WAT     H230152   3.612   3.476   8.487
 5401WAT      O30153   5.592   3.769   8.091
 5401WAT     H130154   5.638   3.738   8.170
 5401WAT     H230155   5.529   3.700   8.071
 5402WAT      O30156   4.630   2.238   9.993
 5402WAT     H130157   4.711   2.279  10.022
 5402WAT     H230158   4.658   2.165   9.937
 5403WAT      O30159   1.710   0.660   8.332
 5403WAT     H130160   1.698   0.732   8.270
 5403WAT     H230161   1.779   0.606   8.294
 5404WAT      O30162   4.955   1.717   1.833
 5404WAT     H130163   4.964   1.796   1.887
 5404WAT     H230164   5.028   1.662   1.858
 5405WAT      O30165   1.294   5.039  10.968
 5405WAT     H130166   1.318   5.020  10.877
 5405WAT     H230167   1.223   4.978  10.987
 5406WAT      O30168   0.917   0.664   4.250
 5406WAT     H130169   0.971   0.688   4.325
 5406WAT     H230170   0.887   0.576   4.269
 5407WAT      O30171   1.070   4.908  11.025
 5407WAT     H130172   0.996   4.935  11.079
 5407WAT     H230173   1.039   4.831  10.977
 5408WAT      O30174   1.428   0.814   8.014
 5408WAT     H130175   1.354   0.865   8.048
 5408WAT     H230176   1.429   0.833   7.921
 5409WAT      O30177   0.146   4.666  12.534
 5409WAT     H130178   0.118   4.757  12.527
 5409WAT     H230179   0.078   4.617  12.488
 5410WAT      O30180   6.150   6.111   4.530
 5410WAT     H130181   6.096   6.118   4.451
 5410WAT     H230182   6.152   6.199   4.566
 5411WAT      O30183   2.180   1.411  11.220
 5411WAT     H130184   2.267   1.370  11.220
 5411WAT     H230185   2.188   1.482  11.284
 5412WAT      O30186   3.344   2.203   3.187
 5412WAT     H130187   3.277   2.254   3.141
 5412WAT     H230188   3.307   2.187   3.273
 5413WAT      O30189   4.941   4.141  10.250
 5413WAT     H130190   4.849   4.155  10.230
 5413WAT     H230191   4.964   4.213  10.309
 5414WAT      O30192   4.697   5.706   0.750
 5414WAT     H130193   4.718   5.635   0.691
 5414WAT     H230194   4.632   5.758   0.703
 5415WAT      O30195   3.085   5.490   0.992
 5415WAT     H130196   3.112   5.399   0.981
 5415WAT     H230197   3.095   5.507   1.086
 5416WAT      O30198   5.049   0.931   9.449
 5416WAT     H130199   5.007   0.854   9.411
 5416WAT     H230200   5.023   1.003   9.391
 5417WAT      O30201   3.987   1.738   3.129
 5417WAT     H130202   3.900   1.709   3.102
 5417WAT     H230203   4.010   1.682   3.203
 5418WAT      O30204   3.083   4.089   8.597
 5418WAT     H130205   3.161   4.039   8.576
 5418WAT     H230206   3.058   4.131   8.515
 5419WAT      O30207   5.332   2.760   9.425
 5419WAT     H130208   5.268   2.746   9.495
 5419WAT     H230209   5.289   2.727   9.346
 5420WAT      O30210   3.729   0.401   0.071
 5420WAT     H130211   3.768   0.356   0.146
 5420WAT     H230212   3.639   0.417   0.097
 5421WAT      O30213   5.946   4.179  10.117
 5421WAT     H130214   6.020   4.181  10.057
 5421WAT     H230215   5.958   4.099  10.168
 5422WAT      O30216   0.889   5.984  10.062
 5422WAT     H130217   0.826   6.055  10.068
 5422WAT     H230218   0.956   6.016  10.001
 5423WAT      O30219   2.494   2.374   1.346
 5423WAT     H130220   2.578   2.331   1.362
 5423WAT     H230221   2.483   2.433   1.421
 5424WAT      O30222   2.667   0.708   1.497
 5424WAT     H130223   2.631   0.662   1.421
 5424WAT     H230224   2.756   0.733   1.470
 5425WAT      O30225   0.861   5.462  11.673
 5425WAT     H130226   0.799   5.528  11.705
 5425WAT     H230227   0.905   5.504  11.599
 5426WAT      O30228   0.916   0.587   9.807
 5426WAT     H130229   0.901   0.566   9.899
 5426WAT     H230230   0.901   0.681   9.801
 5427WAT      O30231   3.795   1.543  11.785
 5427WAT     H130232   3.793   1.488  11.707
 5427WAT     H230233   3.854   1.497  11.845
 5428WAT      O30234   3.985   1.060   3.054
 5428WAT     H130235   3.991   1.069   2.959
 5428WAT     H230236   4.054   0.997   3.076
 5429WAT      O30237   1.521   4.511   8.162
 5429WAT     H130238   1.457   4.441   8.172
 5429WAT     H230239   1.471   4.591   8.173
 5430WAT      O30240   6.204   5.828   2.778
 5430WAT     H130241   6.136   5.771   2.743
 5430WAT     H230242   6.194   5.822   2.873
 5431WAT      O30243   3.502   3.883   0.936
 5431WAT     H130244   3.511   3.832   1.016
 5431WAT     H230245   3.573   3.852   0.880
 5432WAT      O30246   2.757   5.507   8.031
 5432WAT     H130247   2.688   5.570   8.011
 5432WAT     H230248   2.724   5.423   7.997
 5433WAT      O30249   1.141   1.615   2.850
 5433WAT     H130250   1.105   1.704   2.853
 5433WAT     H230251   1.175   1.599   2.938
 5434WAT      O30252   3.647   3.963   4.213
 5434WAT     H130253   3.721   3.902   4.220
 5434WAT     H230254   3.670   4.035   4.271
 5435WAT      O30255   3.879   2.148   8.533
 5435WAT     H130256   3.847   2.181   8.449
 5435WAT     H230257   3.809   2.090   8.563
 5436WAT      O30258   0.986   1.197  11.644
 5436WAT     H130259   0.965   1.276  11.695
 5436WAT     H230260   0.964   1.124  11.701
 5437WAT      O30261   3.283   1.092   9.259
 5437WAT     H130262   3.200   1.133   9.281
 5437WAT     H230263   3.260   1.005   9.227
 5438WAT      O30264   5.336   1.757   3.654
 5438WAT     H130265   5.430   1.768   3.669
 5438WAT     H230266   5.295   1.778   3.738
 5439WAT      O30267   0.369   2.257   1.730
 5439WAT     H130268   0.426   2.333   1.715
 5439WAT     H230269   0.427   2.182   1.724
 5440WAT      O30270   1.412   5.878  10.735
 5440WAT     H130271   1.439   5.803  10.682
 5440WAT     H230272   1.316   5.876  10.733
 5441WAT      O30273   2.397   3.432  11.129
 5441WAT     H130274   2.462   3.458  11.194
 5441WAT     H230275   2.447   3.391  11.059
 5442WAT      O30276   0.415   4.862   1.335
 5442WAT     H130277   0.333   4.868   1.287
 5442WAT     H230278   0.405   4.924   1.408
 5443WAT      O30279   5.105   1.283  10.628
 5443WAT     H130280   5.049   1.320  10.695
 5443WAT     H230281   5.070   1.195  10.612
 5444WAT      O30282   2.475   3.253   2.491
 5444WAT     H130283   2.496   3.188   2.423
 5444WAT     H230284   2.553   3.258   2.545
 5445WAT      O30285   5.551   0.319  11.129
 5445WAT     H130286   5.639   0.297  11.159
 5445WAT     H230287   5.553   0.414  11.116
 5446WAT      O30288   0.743   1.211   0.998
 5446WAT     H130289   0.827   1.257   1.005
 5446WAT     H230290   0.723   1.184   1.088
 5447WAT      O30291   4.911   4.552   0.250
 5447WAT     H130292   4.899   4.644   0.226
 5447WAT     H230293   4.953   4.555   0.335
 5448WAT      O30294   2.326   2.715  10.918
 5448WAT     H130295   2.285   2.629  10.921
 5448WAT     H230296   2.320   2.748  11.008
 5449WAT      O30297   5.808   1.705   2.976
 5449WAT     H130298   5.802   1.652   3.056
 5449WAT     H230299   5.717   1.723   2.953
 5450WAT      O30300   5.467   2.832   0.366
 5450WAT     H130301   5.457   2.926   0.382
 5450WAT     H230302   5.494   2.827   0.274
 5451WAT      O30303   5.139   4.638   2.796
 5451WAT     H130304   5.233   4.639   2.778
 5451WAT     H230305   5.115   4.545   2.789
 5452WAT      O30306   1.542   0.260   2.990
 5452WAT     H130307   1.531   0.184   2.933
 5452WAT     H230308   1.624   0.300   2.961
 5453WAT      O30309   2.684   3.249   0.337
 5453WAT     H130310   2.775   3.246   0.308
 5453WAT     H230311   2.688   3.279   0.428
 5454WAT      O30312   4.091   4.723  11.960
 5454WAT     H130313   4.080   4.678  11.876
 5454WAT     H230314   4.073   4.815  11.940
 5455WAT      O30315   2.788   5.137   8.580
 5455WAT     H130316   2.861   5.097   8.532
 5455WAT     H230317   2.723   5.156   8.512
 5456WAT      O30318   1.501   5.541   8.724
 5456WAT     H130319   1.570   5.479   8.702
 5456WAT     H230320   1.474   5.516   8.813
 5457WAT      O30321   1.765   2.693   3.176
 5457WAT     H130322   1.857   2.671   3.161
 5457WAT     H230323   1.767   2.750   3.253
 5458WAT      O30324   5.289   6.048   2.999
 5458WAT     H130325   5.257   6.129   3.039
 5458WAT     H230326   5.371   6.029   3.044
 5459WAT      O30327   3.600   6.098   8.160
 5459WAT     H130328   3.661   6.171   8.152
 5459WAT     H230329   3.642   6.026   8.112
 5460WAT      O30330   0.053   2.255  10.641
 5460WAT     H130331   0.143   2.228  10.622
 5460WAT     H230332   0.004   2.234  10.561
 5461WAT      O30333   2.781   1.687   2.199
 5461WAT     H130334   2.794   1.781   2.194
 5461WAT     H230335   2.828   1.661   2.278
 5462WAT      O30336   3.926   4.923  11.322
 5462WAT     H130337   3.843   4.954  11.287
 5462WAT     H230338   3.982   5.000  11.324
 5463WAT      O30339   2.546   1.834   2.835
 5463WAT     H130340   2.453   1.848   2.849
 5463WAT     H230341   2.567   1.883   2.756
 5464WAT      O30342   1.172   1.801   0.863
 5464WAT     H130343   1.190   1.761   0.948
 5464WAT     H230344   1.243   1.864   0.851
 5465WAT      O30345   0.941   4.246   9.124
 5465WAT     H130346   1.010   4.302   9.088
 5465WAT     H230347   0.970   4.157   9.103
 5466WAT      O30348   4.608   3.702   3.082
 5466WAT     H130349   4.621   3.702   2.987
 5466WAT     H230350   4.606   3.794   3.106
 5467WAT      O30351   5.885   0.634   0.927
 5467WAT     H130352   5.798   0.633   0.887
 5467WAT     H230353   5.869   0.651   1.020
 5468WAT      O30354   5.333   4.244  11.528
 5468WAT     H130355   5.370   4.232  11.440
 5468WAT     H230356   5.238   4.234  11.516
 5469WAT      O30357   2.117   4.627   1.261
 5469WAT     H130358   2.209   4.651   1.262
 5469WAT     H230359   2.088   4.636   1.352
 5470WAT      O30360   3.681   2.646   9.893
 5470WAT     H130361   3.738   2.611   9.962
 5470WAT     H230362   3.727   2.625   9.811
 5471WAT      O30363   3.050   0.559  10.969
 5471WAT     H130364   2.990   0.484  10.973
 5471WAT     H230365   3.004   0.629  11.016
 5472WAT      O30366   1.676   5.856   1.139
 5472WAT     H130367   1.615   5.803   1.087
 5472WAT     H230368   1.639   5.855   1.227
 5473WAT      O30369   6.000   5.935   2.510
 5473WAT     H130370   5.983   5.852   2.465
 5473WAT     H230371   5.934   5.995   2.475
 5474WAT      O30372   0.446   2.309   8.665
 5474WAT     H130373   0.430   2.395   8.705
 5474WAT     H230374   0.503   2.264   8.727
 5475WAT      O30375   2.675   0.830  10.671
 5475WAT     H130376   2.718   0.753  10.634
 5475WAT     H230377   2.585   0.802  10.689
 5476WAT      O30378   4.019   5.454   9.570
 5476WAT     H130379   4.061   5.536   9.542
 5476WAT     H230380   4.074   5.385   9.533
 5477WAT      O30381   6.136   3.020   9.475
 5477WAT     H130382   6.166   3.072   9.549
 5477WAT     H230383   6.094   2.944   9.514
 5478WAT      O30384   3.518   3.345   2.154
 5478WAT     H130385   3.510   3.250   2.145
 5478WAT     H230386   3.599   3.366   2.107
 5479WAT      O30387   3.258   0.180   3.542
 5479WAT     H130388   3.265   0.215   3.630
 5479WAT     H230389   3.348   0.163   3.515
 5480WAT      O30390   5.710   0.271  11.785
 5480WAT     H130391   5.691   0.360  11.815
 5480WAT     H230392   5.631   0.244  11.738
 5481WAT      O30393   5.777   2.644   1.729
 5481WAT     H130394   5.825   2.568   1.760
 5481WAT     H230395   5.706   2.608   1.675
 5482WAT      O30396   5.097   3.048   1.898
 5482WAT     H130397   5.119   2.977   1.958
 5482WAT     H230398   5.175   3.104   1.897
 5483WAT      O30399   0.255   1.500  10.623
 5483WAT     H130400   0.221   1.506  10.713
 5483WAT     H230401   0.256   1.406  10.605
 5484WAT      O30402   4.684   3.887  10.333
 5484WAT     H130403   4.645   3.861  10.250
 5484WAT     H230404   4.740   3.814  10.358
 5485WAT      O30405   1.316   2.967  11.603
 5485WAT     H130406   1.223   2.987  11.587
 5485WAT     H230407   1.362   3.049  11.583
 5486WAT      O30408   2.372   2.925   8.714
 5486WAT     H130409   2.374   3.006   8.664
 5486WAT     H230410   2.383   2.856   8.649
 5487WAT      O30411   0.909   2.227   9.441
 5487WAT     H130412   0.880   2.291   9.375
 5487WAT     H230413   0.870   2.144   9.412
 5488WAT      O30414   5.707   0.308   1.008
 5488WAT     H130415   5.627   0.312   0.956
 5488WAT     H230416   5.694   0.372   1.077
 5489WAT      O30417   4.313   4.865   2.248
 5489WAT     H130418   4.233   4.862   2.299
 5489WAT     H230419   4.318   4.779   2.206
 5490WAT      O30420   3.441   1.219   3.519
 5490WAT     H130421   3.407   1.204   3.431
 5490WAT     H230422   3.366   1.254   3.568
 5491WAT      O30423   0.820   2.348   1.509
 5491WAT     H130424   0.817   2.302   1.593
 5491WAT     H230425   0.887   2.302   1.459
 5492WAT      O30426   5.906   4.695   4.832
 5492WAT     H130427   5.922   4.604   4.858
 5492WAT     H230428   5.925   4.746   4.911
 5493WAT      O30429   1.682   1.050  11.686
 5493WAT     H130430   1.742   1.050  11.611
 5493WAT     H230431   1.706   0.971  11.735
 5494WAT      O30432   0.408   5.882  12.179
 5494WAT     H130433   0.385   5.974  12.183
 5494WAT     H230434   0.435   5.867  12.088
 5495WAT      O30435   4.594   0.101   0.371
 5495WAT     H130436   4.535   0.176   0.374
 5495WAT     H230437   4.646   0.115   0.291
 5496WAT      O30438   5.583   3.548   3.970
 5496WAT     H130439   5.586   3.461   4.009
 5496WAT     H230440   5.539   3.602   4.035
 5497WAT      O30441   2.870   0.174   2.159
 5497WAT     H130442   2.875   0.185   2.254
 5497WAT     H230443   2.797   0.113   2.146
 5498WAT      O30444   3.177   1.607   0.382
 5498WAT     H130445   3.103   1.668   0.378
 5498WAT     H230446   3.253   1.661   0.360
 5499WAT      O30447   2.607   4.888  10.470
 5499WAT     H130448   2.612   4.903  10.564
 5499WAT     H230449   2.642   4.800  10.458
 5500WAT      O30450   1.929   0.333  10.648
 5500WAT     H130451   1.966   0.305  10.564
 5500WAT     H230452   1.835   0.318  10.637
 5501WAT      O30453   4.832   4.128   0.483
 5501WAT     H130454   4.896   4.103   0.416
 5501WAT     H230455   4.780   4.048   0.496
 5502WAT      O30456   2.525   3.076   3.270
 5502WAT     H130457   2.597   3.014   3.269
 5502WAT     H230458   2.507   3.092   3.363
 5503WAT      O30459   3.290   2.367   0.410
 5503WAT     H130460   3.277   2.308   0.335
 5503WAT     H230461   3.224   2.435   0.397
 5504WAT      O30462   4.673   3.900  10.841
 5504WAT     H130463   4.639   3.878  10.754
 5504WAT     H230464   4.732   3.828  10.862
 5505WAT      O30465   2.956   0.540   1.683
 5505WAT     H130466   2.896   0.471   1.655
 5505WAT     H230467   2.990   0.577   1.602
 5506WAT      O30468   4.741   2.777   9.383
 5506WAT     H130469   4.766   2.868   9.365
 5506WAT     H230470   4.647   2.782   9.403
 5507WAT      O30471   2.287   0.162   1.934
 5507WAT     H130472   2.339   0.130   1.860
 5507WAT     H230473   2.211   0.204   1.893
 5508WAT      O30474   5.080   0.657   4.283
 5508WAT     H130475   5.056   0.646   4.191
 5508WAT     H230476   5.162   0.708   4.280
 5509WAT      O30477   1.483   6.117  10.633
 5509WAT     H130478   1.434   6.042  10.667
 5509WAT     H230479   1.574   6.088  10.630
 5510WAT      O30480   6.200   2.914   3.193
 5510WAT     H130481   6.207   3.003   3.160
 5510WAT     H230482   6.138   2.920   3.266
 5511WAT      O30483   5.324   3.901   3.511
 5511WAT     H130484   5.361   3.846   3.442
 5511WAT     H230485   5.279   3.839   3.569
 5512WAT      O30486   0.826   2.581   8.310
 5512WAT     H130487   0.840   2.519   8.239
 5512WAT     H230488   0.876   2.659   8.285
 5513WAT      O30489   3.933   4.954   2.740
 5513WAT     H130490   3.981   4.871   2.742
 5513WAT     H230491   3.978   5.005   2.673
 5514WAT      O30492   5.949   0.889   2.142
 5514WAT     H130493   5.870   0.861   2.096
 5514WAT     H230494   5.918   0.920   2.227
 5515WAT      O30495   3.756   4.399  12.328
 5515WAT     H130496   3.791   4.483  12.297
 5515WAT     H230497   3.822   4.368  12.390
 5516WAT      O30498   1.028   0.126   0.901
 5516WAT     H130499   1.031   0.032   0.919
 5516WAT     H230500   0.990   0.132   0.813
 5517WAT      O30501   2.437   3.937   3.200
 5517WAT     H130502   2.487   3.858   3.177
 5517WAT     H230503   2.482   3.971   3.277
 5518WAT      O30504   0.726   4.843   8.929
 5518WAT     H130505   0.729   4.772   8.865
 5518WAT     H230506   0.661   4.816   8.993
 5519WAT      O30507   3.212   1.020   2.729
 5519WAT     H130508   3.167   0.953   2.677
 5519WAT     H230509   3.304   1.013   2.701
 5520WAT      O30510   1.654   0.846  12.108
 5520WAT     H130511   1.729   0.786  12.110
 5520WAT     H230512   1.602   0.817  12.033
 5521WAT      O30513   0.047   5.637   9.852
 5521WAT     H130514   0.113   5.661   9.917
 5521WAT     H230515   0.011   5.554   9.883
 5522WAT      O30516   3.166   2.383   0.957
 5522WAT     H130517   3.153   2.436   0.878
 5522WAT     H230518   3.230   2.317   0.930
 5523WAT      O30519   5.569   5.643   2.442
 5523WAT     H130520   5.521   5.706   2.496
 5523WAT     H230521   5.552   5.670   2.352
 5524WAT      O30522   1.572   0.521   7.745
 5524WAT     H130523   1.620   0.572   7.681
 5524WAT     H230524   1.638   0.493   7.808
 5525WAT      O30525   2.727   1.443  12.044
 5525WAT     H130526   2.813   1.401  12.050
 5525WAT     H230527   2.697   1.449  12.134
 5526WAT      O30528   1.279   1.783  10.732
 5526WAT     H130529   1.302   1.702  10.778
 5526WAT     H230530   1.344   1.847  10.764
 5527WAT      O30531   5.628   4.828   3.959
 5527WAT     H130532   5.545   4.875   3.959
 5527WAT     H230533   5.685   4.878   4.017
 5528WAT      O30534   1.427   0.272   7.778
 5528WAT     H130535   1.350   0.269   7.835
 5528WAT     H230536   1.475   0.349   7.808
 5529WAT      O30537   4.184   3.212   0.789
 5529WAT     H130538   4.158   3.235   0.878
 5529WAT     H230539   4.136   3.131   0.770
 5530WAT      O30540   2.236   0.829   1.748
 5530WAT     H130541   2.310   0.798   1.799
 5530WAT     H230542   2.210   0.753   1.695
 5531WAT      O30543   3.527   1.441   3.840
 5531WAT     H130544   3.453   1.381   3.829
 5531WAT     H230545   3.600   1.384   3.866
 5532WAT      O30546   0.730   4.678   2.224
 5532WAT     H130547   0.683   4.662   2.306
 5532WAT     H230548   0.822   4.688   2.251
 5533WAT      O30549   4.531   2.081   0.517
 5533WAT     H130550   4.477   2.133   0.577
 5533WAT     H230551   4.572   2.015   0.573
 5534WAT      O30552   3.108   3.614  11.938
 5534WAT     H130553   3.186   3.659  11.906
 5534WAT     H230554   3.055   3.683  11.979
 5535WAT      O30555   4.230   0.270   3.443
 5535WAT     H130556   4.186   0.340   3.396
 5535WAT     H230557   4.270   0.312   3.519
 5536WAT      O30558   5.420   0.121   2.647
 5536WAT     H130559   5.455   0.153   2.730
 5536WAT     H230560   5.377   0.197   2.608
 5537WAT      O30561   6.013   5.496  10.085
 5537WAT     H130562   6.000   5.588  10.110
 5537WAT     H230563   5.950   5.481  10.015
 5538WAT      O30564   5.542   4.508   1.679
 5538WAT     H130565   5.586   4.551   1.752
 5538WAT     H230566   5.482   4.445   1.720
 5539WAT      O30567   0.111   0.182   1.567
 5539WAT     H130568   0.173   0.145   1.503
 5539WAT     H230569   0.028   0.184   1.520
 5540WAT      O30570   2.579   2.310   8.616
 5540WAT     H130571   2.541   2.286   8.700
 5540WAT     H230572   2.639   2.382   8.636
 5541WAT      O30573   4.257   2.290   1.603
 5541WAT     H130574   4.256   2.224   1.534
 5541WAT     H230575   4.262   2.239   1.684
 5542WAT      O30576   1.439   3.480   0.165
 5542WAT     H130577   1.532   3.462   0.159
 5542WAT     H230578   1.399   3.396   0.187
 5543WAT      O30579   0.047   4.937  12.423
 5543WAT     H130580   0.112   4.989  12.377
 5543WAT     H230581  -0.008   5.001  12.468
 5544WAT      O30582   5.696   5.729   9.740
 5544WAT     H130583   5.662   5.672   9.670
 5544WAT     H230584   5.673   5.684   9.821
 5545WAT      O30585   0.590   1.983   4.209
 5545WAT     H130586   0.678   1.987   4.173
 5545WAT     H230587   0.599   1.933   4.290
 5546WAT      O30588   0.730   2.250   4.866
 5546WAT     H130589   0.672   2.174   4.853
 5546WAT     H230590   0.800   2.218   4.923
 5547WAT      O30591   3.450   0.471   1.629
 5547WAT     H130592   3.440   0.393   1.683
 5547WAT     H230593   3.544   0.484   1.621
 5548WAT      O30594   2.535   5.359  10.155
 5548WAT     H130595   2.528   5.345  10.249
 5548WAT     H230596   2.588   5.438  10.145
 5549WAT      O30597   3.768   4.333  12.034
 5549WAT     H130598   3.682   4.371  12.015
 5549WAT     H230599   3.779   4.343  12.128
 5550WAT      O30600   0.016   1.007   0.268
 5550WAT     H130601   0.075   1.029   0.196
 5550WAT     H230602   0.074   0.997   0.344
 5551WAT      O30603   0.119   5.887   3.120
 5551WAT     H130604   0.154   5.957   3.175
 5551WAT     H230605   0.184   5.876   3.050
 5552WAT      O30606   5.614   5.835   2.843
 5552WAT     H130607   5.639   5.871   2.928
 5552WAT     H230608   5.697   5.825   2.796
 5553WAT      O30609   2.868   1.175   8.995
 5553WAT     H130610   2.874   1.083   9.020
 5553WAT     H230611   2.918   1.221   9.062
 5554WAT      O30612   4.378   1.769   9.986
 5554WAT     H130613   4.353   1.815  10.066
 5554WAT     H230614   4.435   1.698  10.017
 5555WAT      O30615   3.749   1.811  11.665
 5555WAT     H130616   3.795   1.895  11.670
 5555WAT     H230617   3.818   1.745  11.667
 5556WAT      O30618   1.155   6.043   0.842
 5556WAT     H130619   1.204   6.065   0.763
 5556WAT     H230620   1.222   6.020   0.906
 5557WAT      O30621   3.120   1.323   2.943
 5557WAT     H130622   3.173   1.374   3.004
 5557WAT     H230623   3.074   1.389   2.891
 5558WAT      O30624   5.908   3.617   0.067
 5558WAT     H130625   5.972   3.616   0.138
 5558WAT     H230626   5.847   3.547   0.089
 5559WAT      O30627   2.061   4.107  11.732
 5559WAT     H130628   1.994   4.152  11.680
 5559WAT     H230629   2.118   4.176  11.765
 5560WAT      O30630   2.059   0.645   4.200
 5560WAT     H130631   2.087   0.681   4.116
 5560WAT     H230632   1.973   0.608   4.183
 5561WAT      O30633   5.162   5.931   4.640
 5561WAT     H130634   5.134   5.887   4.720
 5561WAT     H230635   5.167   5.861   4.575
 5562WAT      O30636   1.843   4.429   8.916
 5562WAT     H130637   1.937   4.413   8.907
 5562WAT     H230638   1.808   4.349   8.955
 5563WAT      O30639   1.080   2.301   9.784
 5563WAT     H130640   1.105   2.294   9.692
 5563WAT     H230641   1.070   2.395   9.800
 5564WAT      O30642   4.061   3.187   9.399
 5564WAT     H130643   4.038   3.238   9.477
 5564WAT     H230644   4.090   3.103   9.434
 5565WAT      O30645   4.780   3.836   2.203
 5565WAT     H130646   4.832   3.880   2.270
 5565WAT     H230647   4.690   3.842   2.235
 5566WAT      O30648   4.915   5.659  11.379
 5566WAT     H130649   5.001   5.700  11.383
 5566WAT     H230650   4.899   5.646  11.285
 5567WAT      O30651   1.591   2.506   2.928
 5567WAT     H130652   1.530   2.561   2.878
 5567WAT     H230653   1.545   2.487   3.010
 5568WAT      O30654   4.724   0.252   1.088
 5568WAT     H130655   4.723   0.348   1.082
 5568WAT     H230656   4.779   0.234   1.164
 5569WAT      O30657   1.567   1.960   2.960
 5569WAT     H130658   1.587   1.948   2.867
 5569WAT     H230659   1.620   2.035   2.986
 5570WAT      O30660   2.383   2.735   9.395
 5570WAT     H130661   2.366   2.829   9.406
 5570WAT     H230662   2.297   2.697   9.377
 5571WAT      O30663   4.768   4.836   0.867
 5571WAT     H130664   4.780   4.864   0.776
 5571WAT     H230665   4.780   4.741   0.865
 5572WAT      O30666   5.606   3.618   1.857
 5572WAT     H130667   5.532   3.643   1.914
 5572WAT     H230668   5.600   3.679   1.783
 5573WAT      O30669   1.216   1.987   1.949
 5573WAT     H130670   1.218   2.016   2.041
 5573WAT     H230671   1.303   2.009   1.916
 5574WAT      O30672   2.998   5.545  12.671
 5574WAT     H130673   3.020   5.493  12.593
 5574WAT     H230674   3.036   5.496  12.744
 5575WAT      O30675   5.654   5.183   3.235
 5575WAT     H130676   5.577   5.230   3.205
 5575WAT     H230677   5.717   5.190   3.163
 5576WAT      O30678   5.846   3.257  10.237
 5576WAT     H130679   5.877   3.281  10.324
 5576WAT     H230680   5.785   3.184  10.253
 5577WAT      O30681   4.482   4.996  11.831
 5577WAT     H130682   4.577   4.995  11.819
 5577WAT     H230683   4.450   5.057  11.764
 5578WAT      O30684   1.664   1.657  10.487
 5578WAT     H130685   1.689   1.576  10.531
 5578WAT     H230686   1.720   1.661  10.410
 5579WAT      O30687   0.539   5.976   2.783
 5579WAT     H130688   0.474   5.933   2.728
 5579WAT     H230689   0.488   6.022   2.850
 5580WAT      O30690   0.444   1.905   9.149
 5580WAT     H130691   0.385   1.962   9.100
 5580WAT     H230692   0.482   1.962   9.216
 5581WAT      O30693   3.755   3.386   9.517
 5581WAT     H130694   3.773   3.337   9.598
 5581WAT     H230695   3.725   3.320   9.455
 5582WAT      O30696   3.915   1.259  11.458
 5582WAT     H130697   4.000   1.299  11.471
 5582WAT     H230698   3.891   1.224  11.544
 5583WAT      O30699   1.742   5.460   3.810
 5583WAT     H130700   1.830   5.488   3.786
 5583WAT     H230701   1.707   5.533   3.861
 5584WAT      O30702   1.481   5.718   0.954
 5584WAT     H130703   1.557   5.719   0.896
 5584WAT     H230704   1.459   5.626   0.963
 5585WAT      O30705   1.264   5.996   0.044
 5585WAT     H130706   1.329   5.930   0.019
 5585WAT     H230707   1.289   6.022   0.133
 5586WAT      O30708   1.967   2.836  11.318
 5586WAT     H130709   2.057   2.870  11.323
 5586WAT     H230710   1.944   2.843  11.226
 5587WAT      O30711   3.872   2.604   2.210
 5587WAT     H130712   3.910   2.691   2.222
 5587WAT     H230713   3.779   2.615   2.232
 5588WAT      O30714   4.134   0.656   1.566
 5588WAT     H130715   4.184   0.665   1.485
 5588WAT     H230716   4.167   0.575   1.605
 5589WAT      O30717   4.726   1.901   3.764
 5589WAT     H130718   4.811   1.944   3.768
 5589WAT     H230719   4.699   1.891   3.855
 5590WAT      O30720   1.730   5.052  12.377
 5590WAT     H130721   1.714   4.998  12.454
 5590WAT     H230722   1.656   5.112  12.373
 5591WAT      O30723   0.356   0.847   8.694
 5591WAT     H130724   0.314   0.927   8.725
 5591WAT     H230725   0.385   0.868   8.605
 5592WAT      O30726   4.551   0.649   8.413
 5592WAT     H130727   4.534   0.603   8.331
 5592WAT     H230728   4.617   0.715   8.391
 5593WAT      O30729   5.664   2.559   4.458
 5593WAT     H130730   5.675   2.614   4.536
 5593WAT     H230731   5.581   2.587   4.420
 5594WAT      O30732   2.584   3.925  10.548
 5594WAT     H130733   2.551   3.887  10.466
 5594WAT     H230734   2.616   4.012  10.523
 5595WAT      O30735   4.367   2.884   3.117
 5595WAT     H130736   4.290   2.858   3.169
 5595WAT     H230737   4.417   2.941   3.176
 5596WAT      O30738   5.297   5.470  12.623
 5596WAT     H130739   5.328   5.512  12.704
 5596WAT     H230740   5.371   5.476  12.563
 5597WAT      O30741   2.887   0.806   4.024
 5597WAT     H130742   2.967   0.856   4.038
 5597WAT     H230743   2.888   0.784   3.931
 5598WAT      O30744   2.987   5.081   4.158
 5598WAT     H130745   2.902   5.098   4.117
 5598WAT     H230746   3.022   5.167   4.177
 5599WAT      O30747   2.528   1.532   9.228
 5599WAT     H130748   2.604   1.475   9.240
 5599WAT     H230749   2.467   1.506   9.297
 5600WAT      O30750   3.236   0.472   2.611
 5600WAT     H130751   3.228   0.388   2.567
 5600WAT     H230752   3.180   0.464   2.689
 5601WAT      O30753   5.005   2.445   0.964
 5601WAT     H130754   4.976   2.367   0.918
 5601WAT     H230755   4.981   2.430   1.055
 5602WAT      O30756   4.957   3.218  10.947
 5602WAT     H130757   5.051   3.217  10.966
 5602WAT     H230758   4.929   3.128  10.963
 5603WAT      O30759   1.309   6.234   4.103
 5603WAT     H130760   1.294   6.222   4.197
 5603WAT     H230761   1.292   6.147   4.065
 5604WAT      O30762   2.759   2.305   3.154
 5604WAT     H130763   2.829   2.308   3.090
 5604WAT     H230764   2.682   2.275   3.105
 5605WAT      O30765   1.164   1.087   1.741
 5605WAT     H130766   1.115   1.166   1.718
 5605WAT     H230767   1.178   1.042   1.658
 5606WAT      O30768   0.577   3.930   0.525
 5606WAT     H130769   0.507   3.888   0.576
 5606WAT     H230770   0.540   3.940   0.438
 5607WAT      O30771   5.209   0.219   4.000
 5607WAT     H130772   5.118   0.245   4.014
 5607WAT     H230773   5.251   0.231   4.085
 5608WAT      O30774   1.621   1.144  10.947
 5608WAT     H130775   1.671   1.078  10.899
 5608WAT     H230776   1.556   1.176  10.884
 5609WAT      O30777   4.236   3.224  10.979
 5609WAT     H130778   4.331   3.233  10.977
 5609WAT     H230779   4.214   3.184  10.895
 5610WAT      O30780   1.687   4.284   0.080
 5610WAT     H130781   1.717   4.196   0.057
 5610WAT     H230782   1.613   4.269   0.139
 5611WAT      O30783   0.875   0.814   8.069
 5611WAT     H130784   0.910   0.823   7.980
 5611WAT     H230785   0.927   0.875   8.122
 5612WAT      O30786   5.071   3.091   1.592
 5612WAT     H130787   5.156   3.102   1.635
 5612WAT     H230788   5.090   3.042   1.512
 5613WAT      O30789   2.101   2.889   1.112
 5613WAT     H130790   2.080   2.950   1.183
 5613WAT     H230791   2.196   2.889   1.108
 5614WAT      O30792   5.861   2.820   4.003
 5614WAT     H130793   5.905   2.848   4.083
 5614WAT     H230794   5.789   2.882   3.992
 5615WAT      O30795   1.951   2.367  10.888
 5615WAT     H130796   1.918   2.344  10.800
 5615WAT     H230797   1.872   2.382  10.940
 5616WAT      O30798   5.429   1.046   9.595
 5616WAT     H130799   5.414   0.955   9.622
 5616WAT     H230800   5.402   1.048   9.503
 5617WAT      O30801   2.772   1.378   1.161
 5617WAT     H130802   2.860   1.341   1.159
 5617WAT     H230803   2.781   1.465   1.123
 5618WAT      O30804   3.099   4.794   2.951
 5618WAT     H130805   3.142   4.802   3.036
 5618WAT     H230806   3.037   4.722   2.963
 5619WAT      O30807   5.369   0.835  11.421
 5619WAT     H130808   5.330   0.808  11.505
 5619WAT     H230809   5.296   0.869  11.370
 5620WAT      O30810   0.808   4.383   2.315
 5620WAT     H130811   0.825   4.311   2.254
 5620WAT     H230812   0.837   4.461   2.268
 5621WAT      O30813   0.582   2.833   2.456
 5621WAT     H130814   0.503   2.886   2.448
 5621WAT     H230815   0.654   2.895   2.449
 5622WAT      O30816   4.797   1.758   0.216
 5622WAT     H130817   4.809   1.853   0.212
 5622WAT     H230818   4.784   1.732   0.125
 5623WAT      O30819   5.806   6.187   8.777
 5623WAT     H130820   5.795   6.245   8.852
 5623WAT     H230821   5.872   6.123   8.806
 5624WAT      O30822   3.609   3.990   8.596
 5624WAT     H130823   3.557   3.954   8.523
 5624WAT     H230824   3.690   4.020   8.555
 5625WAT      O30825   2.056   3.555   1.465
 5625WAT     H130826   2.134   3.588   1.510
 5625WAT     H230827   2.090   3.492   1.401
 5626WAT      O30828   1.761   4.591   0.633
 5626WAT     H130829   1.821   4.639   0.576
 5626WAT     H230830   1.708   4.538   0.574
 5627WAT      O30831   4.135   6.149  11.009
 5627WAT     H130832   4.190   6.098  11.069
 5627WAT     H230833   4.063   6.180  11.064
 5628WAT      O30834   3.017   5.871  10.175
 5628WAT     H130835   3.112   5.879  10.170
 5628WAT     H230836   2.985   5.961  10.171
 5629WAT      O30837   4.797   1.412  12.097
 5629WAT     H130838   4.826   1.460  12.174
 5629WAT     H230839   4.732   1.350  12.130
 5630WAT      O30840   5.757   2.344   0.388
 5630WAT     H130841   5.674   2.296   0.387
 5630WAT     H230842   5.762   2.380   0.476
 5631WAT      O30843   3.143   2.630   0.271
 5631WAT     H130844   3.134   2.585   0.186
 5631WAT     H230845   3.105   2.717   0.256
 5632WAT      O30846   4.899   1.666  10.433
 5632WAT     H130847   4.952   1.712  10.497
 5632WAT     H230848   4.809   1.680  10.462
 5633WAT      O30849   1.477   2.839  10.657
 5633WAT     H130850   1.471   2.902  10.586
 5633WAT     H230851   1.564   2.800  10.647
 5634WAT      O30852   2.275   4.414  10.556
 5634WAT     H130853   2.293   4.344  10.620
 5634WAT     H230854   2.250   4.368  10.476
 5635WAT      O30855   0.014   5.486   9.175
 5635WAT     H130856   0.061   5.541   9.238
 5635WAT     H230857   0.081   5.453   9.116
 5636WAT      O30858   0.152   5.184  12.626
 5636WAT     H130859   0.153   5.134  12.544
 5636WAT     H230860   0.211   5.136  12.683
 5637WAT      O30861   3.297   5.214   0.155
 5637WAT     H130862   3.362   5.255   0.098
 5637WAT     H230863   3.346   5.188   0.232
 5638WAT      O30864   5.191   3.172   7.956
 5638WAT     H130865   5.272   3.222   7.947
 5638WAT     H230866   5.186   3.120   7.875
 5639WAT      O30867   3.827   1.257   1.830
 5639WAT     H130868   3.747   1.288   1.871
 5639WAT     H230869   3.835   1.166   1.859
 5640WAT      O30870   5.824   1.024  11.944
 5640WAT     H130871   5.874   1.091  11.898
 5640WAT     H230872   5.808   1.061  12.031
 5641WAT      O30873   0.100   2.221   1.076
 5641WAT     H130874   0.140   2.296   1.119
 5641WAT     H230875   0.045   2.181   1.144
 5642WAT      O30876   5.292   3.462   1.415
 5642WAT     H130877   5.379   3.436   1.384
 5642WAT     H230878   5.302   3.553   1.440
 5643WAT      O30879   5.765   2.562   8.147
 5643WAT     H130880   5.827   2.579   8.076
 5643WAT     H230881   5.797   2.481   8.187
 5644WAT      O30882   4.376  -0.003  12.102
 5644WAT     H130883   4.406   0.060  12.168
 5644WAT     H230884   4.293  -0.036  12.137
 5645WAT      O30885   4.092   5.051   9.126
 5645WAT     H130886   4.072   5.133   9.080
 5645WAT     H230887   4.167   5.073   9.181
 5646WAT      O30888   3.175   0.073  12.052
 5646WAT     H130889   3.254   0.110  12.012
 5646WAT     H230890   3.208   0.013  12.118
 5647WAT      O30891   4.528   2.957  11.908
 5647WAT     H130892   4.587   2.906  11.964
 5647WAT     H230893   4.525   3.044  11.949
 5648WAT      O30894   0.889   3.149   1.994
 5648WAT     H130895   0.938   3.104   1.924
 5648WAT     H230896   0.804   3.104   1.996
 5649WAT      O30897   1.203   4.192  10.489
 5649WAT     H130898   1.234   4.108  10.456
 5649WAT     H230899   1.262   4.256  10.448
 5650WAT      O30900   2.483   2.438   1.058
 5650WAT     H130901   2.545   2.511   1.059
 5650WAT     H230902   2.482   2.407   1.148
 5651WAT      O30903   4.170   0.885   8.966
 5651WAT     H130904   4.167   0.942   9.042
 5651WAT     H230905   4.194   0.799   9.001
 5652WAT      O30906   4.390   5.215   2.820
 5652WAT     H130907   4.388   5.214   2.724
 5652WAT     H230908   4.475   5.178   2.843
 5653WAT      O30909   2.429   5.468   2.038
 5653WAT     H130910   2.369   5.541   2.025
 5653WAT     H230911   2.386   5.414   2.105
 5654WAT      O30912   1.609   2.060   1.701
 5654WAT     H130913   1.695   2.077   1.738
 5654WAT     H230914   1.610   1.967   1.679
 5655WAT      O30915   3.224   5.489   1.601
 5655WAT     H130916   3.208   5.476   1.695
 5655WAT     H230917   3.153   5.548   1.573
 5656WAT      O30918   1.245   3.536   9.893
 5656WAT     H130919   1.257   3.545   9.988
 5656WAT     H230920   1.159   3.573   9.876
 5657WAT      O30921   5.931   4.909  12.630
 5657WAT     H130922   5.930   4.936  12.722
 5657WAT     H230923   5.838   4.905  12.605
 5658WAT      O30924   3.378   6.043   3.528
 5658WAT     H130925   3.449   6.052   3.464
 5658WAT     H230926   3.407   6.094   3.604
 5659WAT      O30927   2.130   6.039   0.620
 5659WAT     H130928   2.074   6.112   0.648
 5659WAT     H230929   2.217   6.079   0.609
 5660WAT      O30930   1.159   3.756   3.621
 5660WAT     H130931   1.205   3.684   3.578
 5660WAT     H230932   1.078   3.717   3.653
 5661WAT      O30933   0.676   6.226   2.760
 5661WAT     H130934   0.599   6.265   2.799
 5661WAT     H230935   0.659   6.131   2.763
 5662WAT      O30936   3.388   5.998   9.901
 5662WAT     H130937   3.445   5.940   9.950
 5662WAT     H230938   3.377   5.955   9.816
 5663WAT      O30939   2.443   5.509   8.510
 5663WAT     H130940   2.477   5.541   8.426
 5663WAT     H230941   2.423   5.589   8.559
 5664WAT      O30942   0.374   4.737  12.649
 5664WAT     H130943   0.445   4.674  12.637
 5664WAT     H230944   0.305   4.707  12.590
 5665WAT      O30945   5.821   3.380  10.915
 5665WAT     H130946   5.737   3.340  10.938
 5665WAT     H230947   5.870   3.310  10.872
 5666WAT      O30948   1.455   5.073   1.098
 5666WAT     H130949   1.530   5.022   1.128
 5666WAT     H230950   1.412   5.103   1.178
 5667WAT      O30951   0.350   5.627   2.127
 5667WAT     H130952   0.271   5.578   2.149
 5667WAT     H230953   0.385   5.584   2.049
 5668WAT      O30954   4.309   6.060   2.786
 5668WAT     H130955   4.229   6.008   2.781
 5668WAT     H230956   4.360   6.032   2.710
 5669WAT      O30957   3.493   3.278   3.277
 5669WAT     H130958   3.547   3.240   3.209
 5669WAT     H230959   3.497   3.215   3.349
 5670WAT      O30960   0.710   0.171   2.066
 5670WAT     H130961   0.666   0.211   2.141
 5670WAT     H230962   0.659   0.199   1.990
 5671WAT      O30963   1.810   0.730   2.699
 5671WAT     H130964   1.769   0.646   2.718
 5671WAT     H230965   1.797   0.743   2.605
 5672WAT      O30966   4.179   2.221  11.548
 5672WAT     H130967   4.137   2.306  11.553
 5672WAT     H230968   4.112   2.163  11.512
 5673WAT      O30969   0.697   5.378   8.482
 5673WAT     H130970   0.654   5.310   8.431
 5673WAT     H230971   0.627   5.438   8.507
 5674WAT      O30972   2.515   5.388  11.732
 5674WAT     H130973   2.579   5.339  11.682
 5674WAT     H230974   2.547   5.479  11.729
 5675WAT      O30975   1.049   3.711   3.292
 5675WAT     H130976   1.066   3.639   3.353
 5675WAT     H230977   0.975   3.758   3.331
 5676WAT      O30978   2.136   4.720  10.964
 5676WAT     H130979   2.071   4.789  10.976
 5676WAT     H230980   2.121   4.687  10.875
 5677WAT      O30981   4.855   2.931  10.490
 5677WAT     H130982   4.810   2.900  10.412
 5677WAT     H230983   4.910   2.857  10.517
 5678WAT      O30984   3.110   0.618   0.842
 5678WAT     H130985   3.135   0.710   0.854
 5678WAT     H230986   3.050   0.601   0.914
 5679WAT      O30987   1.519   1.902   9.018
 5679WAT     H130988   1.589   1.913   9.082
 5679WAT     H230989   1.441   1.885   9.070
 5680WAT      O30990   3.892   3.985  12.168
 5680WAT     H130991   3.903   4.043  12.244
 5680WAT     H230992   3.873   4.043  12.095
 5681WAT      O30993   2.463   5.307   3.398
 5681WAT     H130994   2.430   5.370   3.335
 5681WAT     H230995   2.388   5.285   3.453
 5682WAT      O30996   5.109   1.905   9.257
 5682WAT     H130997   5.088   1.874   9.345
 5682WAT     H230998   5.202   1.887   9.247
 5683WAT      O30999   0.270   3.542  12.640
 5683WAT     H131000   0.350   3.569  12.683
 5683WAT     H231001   0.209   3.523  12.711
 5684WAT      O31002   1.175   5.575  11.164
 5684WAT     H131003   1.190   5.496  11.216
 5684WAT     H231004   1.210   5.647  11.217
 5685WAT      O31005   4.047   0.495   1.198
 5685WAT     H131006   4.012   0.441   1.126
 5685WAT     H231007   3.991   0.474   1.273
 5686WAT      O31008   4.299   3.044   2.904
 5686WAT     H131009   4.315   2.990   2.981
 5686WAT     H231010   4.275   2.982   2.836
 5687WAT      O31011   0.421   5.764   8.564
 5687WAT     H131012   0.492   5.770   8.500
 5687WAT     H231013   0.445   5.827   8.632
 5688WAT      O31014   3.774   3.280   9.768
 5688WAT     H131015   3.697   3.289   9.823
 5688WAT     H231016   3.847   3.272   9.829
 5689WAT      O31017   2.808   1.944   9.535
 5689WAT     H131018   2.722   1.982   9.551
 5689WAT     H231019   2.791   1.856   9.503
 5690WAT      O31020   1.979   0.032   0.399
 5690WAT     H131021   2.019  -0.030   0.339
 5690WAT     H231022   2.014   0.117   0.373
 5691WAT      O31023   6.110   0.666   2.151
 5691WAT     H131024   6.050   0.626   2.088
 5691WAT     H231025   6.084   0.759   2.152
 5692WAT      O31026   4.803   6.122   3.254
 5692WAT     H131027   4.821   6.161   3.168
 5692WAT     H231028   4.889   6.093   3.285
 5693WAT      O31029   3.713   5.562   2.278
 5693WAT     H131030   3.771   5.535   2.349
 5693WAT     H231031   3.642   5.609   2.322
 5694WAT      O31032   0.950   1.407  12.468
 5694WAT     H131033   0.910   1.475  12.413
 5694WAT     H231034   0.875   1.360  12.505
 5695WAT      O31035   0.716   3.560   9.995
 5695WAT     H131036   0.705   3.477  10.040
 5695WAT     H231037   0.679   3.546   9.908
 5696WAT      O31038   1.631   4.472   0.397
 5696WAT     H131039   1.537   4.488   0.400
 5696WAT     H231040   1.661   4.519   0.320
 5697WAT      O31041   4.486   4.080  10.490
 5697WAT     H131042   4.562   4.046  10.537
 5697WAT     H231043   4.412   4.028  10.523
 5698WAT      O31044   5.464   5.143   4.185
 5698WAT     H131045   5.451   5.058   4.228
 5698WAT     H231046   5.449   5.207   4.255
 5699WAT      O31047   0.384   2.859   8.629
 5699WAT     H131048   0.304   2.897   8.665
 5699WAT     H231049   0.375   2.765   8.646
 5700WAT      O31050   1.750   2.200  11.394
 5700WAT     H131051   1.839   2.225  11.416
 5700WAT     H231052   1.746   2.106  11.408
 5701WAT      O31053   4.844   5.534   3.392
 5701WAT     H131054   4.842   5.620   3.349
 5701WAT     H231055   4.806   5.474   3.328
 5702WAT      O31056   3.609   5.173   0.476
 5702WAT     H131057   3.703   5.158   0.465
 5702WAT     H231058   3.583   5.114   0.547
 5703WAT      O31059   1.331   0.316   1.424
 5703WAT     H131060   1.256   0.284   1.374
 5703WAT     H231061   1.394   0.345   1.358
 5704WAT      O31062   5.907   3.702   9.408
 5704WAT     H131063   5.957   3.741   9.337
 5704WAT     H231064   5.946   3.616   9.420
 5705WAT      O31065   0.943   1.358   4.047
 5705WAT     H131066   0.974   1.403   3.967
 5705WAT     H231067   0.994   1.398   4.117
 5706WAT      O31068   4.211   2.008   3.909
 5706WAT     H131069   4.286   1.964   3.870
 5706WAT     H231070   4.224   1.999   4.004
 5707WAT      O31071   4.063   4.931   3.755
 5707WAT     H131072   4.003   4.857   3.769
 5707WAT     H231073   4.141   4.908   3.806
 5708WAT      O31074   3.364   0.553   0.432
 5708WAT     H131075   3.274   0.528   0.412
 5708WAT     H231076   3.378   0.523   0.522
 5709WAT      O31077   2.998   3.802   8.811
 5709WAT     H131078   3.074   3.852   8.783
 5709WAT     H231079   2.943   3.866   8.857
 5710WAT      O31080   3.708   4.264  11.108
 5710WAT     H131081   3.770   4.336  11.113
 5710WAT     H231082   3.720   4.216  11.190
 5711WAT      O31083   4.338   0.365   9.733
 5711WAT     H131084   4.328   0.349   9.827
 5711WAT     H231085   4.360   0.279   9.696
 5712WAT      O31086   1.210   3.946   0.661
 5712WAT     H131087   1.295   3.989   0.672
 5712WAT     H231088   1.198   3.895   0.742
 5713WAT      O31089   1.781   0.761   3.076
 5713WAT     H131090   1.698   0.780   3.032
 5713WAT     H231091   1.804   0.673   3.045
 5714WAT      O31092   5.929   5.760   0.732
 5714WAT     H131093   5.833   5.753   0.730
 5714WAT     H231094   5.953   5.779   0.641
 5715WAT      O31095   5.624   1.870   3.696
 5715WAT     H131096   5.715   1.868   3.666
 5715WAT     H231097   5.625   1.926   3.773
 5716WAT      O31098   0.332   1.828   7.941
 5716WAT     H131099   0.414   1.871   7.920
 5716WAT     H231100   0.275   1.847   7.867
 5717WAT      O31101   1.397   4.017  11.294
 5717WAT     H131102   1.391   4.082  11.364
 5717WAT     H231103   1.318   4.032  11.242
 5718WAT      O31104   5.661   4.041   2.167
 5718WAT     H131105   5.567   4.059   2.167
 5718WAT     H231106   5.669   3.958   2.214
 5719WAT      O31107   4.067   4.667  12.468
 5719WAT     H131108   4.155   4.630  12.467
 5719WAT     H231109   4.024   4.625  12.543
 5720WAT      O31110   6.096   5.264  11.009
 5720WAT     H131111   6.013   5.311  10.999
 5720WAT     H231112   6.073   5.185  11.059
 5721WAT      O31113   6.104   1.299   8.467
 5721WAT     H131114   6.038   1.233   8.485
 5721WAT     H231115   6.091   1.323   8.375
 5722WAT      O31116   3.593   2.269   8.470
 5722WAT     H131117   3.573   2.184   8.430
 5722WAT     H231118   3.664   2.305   8.417
 5723WAT      O31119   3.653   4.835   9.478
 5723WAT     H131120   3.670   4.909   9.419
 5723WAT     H231121   3.688   4.864   9.562
 5724WAT      O31122   3.677   3.599  10.028
 5724WAT     H131123   3.761   3.624  10.066
 5724WAT     H231124   3.687   3.506  10.007
 5725WAT      O31125   1.032   5.354   9.824
 5725WAT     H131126   0.996   5.266   9.818
 5725WAT     H231127   0.992   5.401   9.751
 5726WAT      O31128   0.843   3.898   4.515
 5726WAT     H131129   0.799   3.815   4.533
 5726WAT     H231130   0.936   3.880   4.532
 5727WAT      O31131   5.484   2.426   8.413
 5727WAT     H131132   5.508   2.337   8.388
 5727WAT     H231133   5.434   2.415   8.494
 5728WAT      O31134   1.433   0.911   3.121
 5728WAT     H131135   1.379   0.884   3.195
 5728WAT     H231136   1.417   1.005   3.113
 5729WAT      O31137   5.462   1.895   4.611
 5729WAT     H131138   5.375   1.896   4.652
 5729WAT     H231139   5.509   1.967   4.653
 5730WAT      O31140   0.553   4.662  10.184
 5730WAT     H131141   0.541   4.586  10.241
 5730WAT     H231142   0.627   4.639  10.128
 5731WAT      O31143   5.747   5.975  12.679
 5731WAT     H131144   5.830   6.021  12.665
 5731WAT     H231145   5.726   5.937  12.593
 5732WAT      O31146   0.776   4.354   3.878
 5732WAT     H131147   0.763   4.302   3.957
 5732WAT     H231148   0.719   4.430   3.889
 5733WAT      O31149   3.698   1.901   0.713
 5733WAT     H131150   3.682   1.993   0.732
 5733WAT     H231151   3.708   1.898   0.617
 5734WAT      O31152   6.051   3.479   2.382
 5734WAT     H131153   6.013   3.459   2.467
 5734WAT     H231154   6.084   3.395   2.350
 5735WAT      O31155   3.317   5.984   0.225
 5735WAT     H131156   3.378   6.038   0.275
 5735WAT     H231157   3.293   6.039   0.150
 5736WAT      O31158   1.775   0.464   7.956
 5736WAT     H131159   1.839   0.396   7.936
 5736WAT     H231160   1.827   0.539   7.985
 5737WAT      O31161   0.823   3.112   7.762
 5737WAT     H131162   0.730   3.125   7.778
 5737WAT     H231163   0.854   3.197   7.731
 5738WAT      O31164   2.768   0.837   9.470
 5738WAT     H131165   2.675   0.817   9.461
 5738WAT     H231166   2.792   0.800   9.555
 5739WAT      O31167   2.373   5.643   3.541
 5739WAT     H131168   2.280   5.649   3.521
 5739WAT     H231169   2.409   5.585   3.474
 5740WAT      O31170   0.770   4.267   9.759
 5740WAT     H131171   0.728   4.319   9.827
 5740WAT     H231172   0.712   4.275   9.683
 5741WAT      O31173   0.412   0.990   2.062
 5741WAT     H131174   0.503   0.987   2.093
 5741WAT     H231175   0.405   1.073   2.015
 5742WAT      O31176   5.740   1.491   3.532
 5742WAT     H131177   5.673   1.424   3.522
 5742WAT     H231178   5.703   1.569   3.493
 5743WAT      O31179   2.800   4.959   1.349
 5743WAT     H131180   2.875   4.903   1.327
 5743WAT     H231181   2.808   5.034   1.291
 5744WAT      O31182   5.053   2.775  12.556
 5744WAT     H131183   5.081   2.843  12.618
 5744WAT     H231184   5.135   2.744  12.517
 5745WAT      O31185   1.190   0.320   3.736
 5745WAT     H131186   1.177   0.322   3.831
 5745WAT     H231187   1.157   0.234   3.710
 5746WAT      O31188   3.100   5.660   2.808
 5746WAT     H131189   3.192   5.686   2.805
 5746WAT     H231190   3.065   5.705   2.884
 5747WAT      O31191   0.666   1.834  11.004
 5747WAT     H131192   0.675   1.768  11.073
 5747WAT     H231193   0.601   1.896  11.037
 5748WAT      O31194   4.984   0.220   3.688
 5748WAT     H131195   4.983   0.275   3.609
 5748WAT     H231196   5.070   0.236   3.727
 5749WAT      O31197   5.499   5.717   3.119
 5749WAT     H131198   5.490   5.794   3.175
 5749WAT     H231199   5.531   5.752   3.036
 5750WAT      O31200   1.503   0.616  11.257
 5750WAT     H131201   1.555   0.623  11.337
 5750WAT     H231202   1.559   0.652  11.188
 5751WAT      O31203   2.017   2.281  11.463
 5751WAT     H131204   2.035   2.344  11.532
 5751WAT     H231205   2.067   2.203  11.487
 5752WAT      O31206   5.931   6.032   7.592
 5752WAT     H131207   5.893   5.944   7.580
 5752WAT     H231208   5.858   6.085   7.624
 5753WAT      O31209   5.940   5.591   8.307
 5753WAT     H131210   5.997   5.605   8.232
 5753WAT     H231211   5.874   5.660   8.301
 5754WAT      O31212   0.860   1.444  11.364
 5754WAT     H131213   0.810   1.522  11.389
 5754WAT     H231214   0.796   1.374  11.364
 5755WAT      O31215   0.358   6.056   9.222
 5755WAT     H131216   0.363   5.960   9.222
 5755WAT     H231217   0.374   6.082   9.312
 5756WAT      O31218   0.913   0.702   0.300
 5756WAT     H131219   1.002   0.729   0.322
 5756WAT     H231220   0.882   0.767   0.237
 5757WAT      O31221   3.896   4.023  11.066
 5757WAT     H131222   3.827   3.966  11.033
 5757WAT     H231223   3.863   4.112  11.053
 5758WAT      O31224   0.586   2.357   2.772
 5758WAT     H131225   0.575   2.450   2.791
 5758WAT     H231226   0.679   2.340   2.788
 5759WAT      O31227   3.614   0.694   9.507
 5759WAT     H131228   3.536   0.645   9.483
 5759WAT     H231229   3.593   0.785   9.487
 5760WAT      O31230   4.613   2.723   8.272
 5760WAT     H131231   4.560   2.775   8.333
 5760WAT     H231232   4.558   2.711   8.195
 5761WAT      O31233   2.359   4.408   2.193
 5761WAT     H131234   2.401   4.481   2.146
 5761WAT     H231235   2.432   4.357   2.228
 5762WAT      O31236   5.714   4.705   8.255
 5762WAT     H131237   5.647   4.638   8.242
 5762WAT     H231238   5.701   4.767   8.183
 5763WAT      O31239   5.357   1.192   2.853
 5763WAT     H131240   5.440   1.180   2.900
 5763WAT     H231241   5.322   1.104   2.844
 5764WAT      O31242   3.457   4.757   0.102
 5764WAT     H131243   3.467   4.847   0.131
 5764WAT     H231244   3.531   4.741   0.044
 5765WAT      O31245   4.138   2.066   8.179
 5765WAT     H131246   4.068   2.089   8.118
 5765WAT     H231247   4.218   2.074   8.128
 5766WAT      O31248   4.089   5.678   1.080
 5766WAT     H131249   4.050   5.690   1.167
 5766WAT     H231250   4.135   5.760   1.063
 5767WAT      O31251   5.983   3.280   1.776
 5767WAT     H131252   5.966   3.240   1.691
 5767WAT     H231253   5.899   3.279   1.821
 5768WAT      O31254   0.323   5.022   3.824
 5768WAT     H131255   0.236   5.047   3.854
 5768WAT     H231256   0.378   5.031   3.902
 5769WAT      O31257   0.601   3.450  10.329
 5769WAT     H131258   0.515   3.436  10.287
 5769WAT     H231259   0.657   3.384  10.288
 5770WAT      O31260   2.818   3.746   9.711
 5770WAT     H131261   2.791   3.793   9.790
 5770WAT     H231262   2.906   3.714   9.732
 5771WAT      O31263   4.801   4.552  10.581
 5771WAT     H131264   4.820   4.471  10.534
 5771WAT     H231265   4.723   4.532  10.632
 5772WAT      O31266   5.918   0.538   2.012
 5772WAT     H131267   5.856   0.537   2.085
 5772WAT     H231268   5.971   0.459   2.025
 5773WAT      O31269   3.039   5.519   9.040
 5773WAT     H131270   3.078   5.544   9.123
 5773WAT     H231271   3.035   5.424   9.042
 5774WAT      O31272   4.165   2.258   4.036
 5774WAT     H131273   4.110   2.230   4.109
 5774WAT     H231274   4.222   2.184   4.020
 5775WAT      O31275   0.379   1.617   3.149
 5775WAT     H131276   0.387   1.571   3.065
 5775WAT     H231277   0.461   1.598   3.195
 5776WAT      O31278   4.164   0.838   0.473
 5776WAT     H131279   4.109   0.828   0.551
 5776WAT     H231280   4.246   0.874   0.505
 5777WAT      O31281   5.666   1.918  11.322
 5777WAT     H131282   5.598   1.851  11.332
 5777WAT     H231283   5.748   1.870  11.323
 5778WAT      O31284   2.151   2.564   8.832
 5778WAT     H131285   2.195   2.648   8.843
 5778WAT     H231286   2.084   2.580   8.766
 5779WAT      O31287   0.895   0.208   3.199
 5779WAT     H131288   0.878   0.118   3.171
 5779WAT     H231289   0.991   0.216   3.197
 5780WAT      O31290   3.025   3.930   3.357
 5780WAT     H131291   3.048   3.847   3.315
 5780WAT     H231292   2.963   3.972   3.297
 5781WAT      O31293   2.305   6.170   4.026
 5781WAT     H131294   2.309   6.079   3.996
 5781WAT     H231295   2.211   6.191   4.025
 5782WAT      O31296   0.396   5.653   1.680
 5782WAT     H131297   0.340   5.689   1.611
 5782WAT     H231298   0.414   5.728   1.737
 5783WAT      O31299   1.840   5.145  11.951
 5783WAT     H131300   1.771   5.188  12.001
 5783WAT     H231301   1.888   5.094  12.015
 5784WAT      O31302   1.227   2.013   9.910
 5784WAT     H131303   1.136   2.015   9.881
 5784WAT     H231304   1.229   1.945   9.978
 5785WAT      O31305   1.034   2.163  11.745
 5785WAT     H131306   1.051   2.233  11.682
 5785WAT     H231307   0.969   2.201  11.806
 5786WAT      O31308   1.993   0.270   8.671
 5786WAT     H131309   1.933   0.252   8.743
 5786WAT     H231310   1.937   0.281   8.594
 5787WAT      O31311   1.700   0.784   9.333
 5787WAT     H131312   1.742   0.832   9.261
 5787WAT     H231313   1.747   0.701   9.338
 5788WAT      O31314   2.499   4.632   9.156
 5788WAT     H131315   2.459   4.685   9.087
 5788WAT     H231316   2.431   4.624   9.223
 5789WAT      O31317   3.143   0.194   0.650
 5789WAT     H131318   3.226   0.160   0.682
 5789WAT     H231319   3.098   0.226   0.728
 5790WAT      O31320   3.766   2.447  11.406
 5790WAT     H131321   3.684   2.496  11.416
 5790WAT     H231322   3.819   2.501  11.348
 5791WAT      O31323   0.890   4.860   3.109
 5791WAT     H131324   0.926   4.833   3.194
 5791WAT     H231325   0.803   4.821   3.106
 5792WAT      O31326   0.562   5.578  11.679
 5792WAT     H131327   0.571   5.577  11.584
 5792WAT     H231328   0.589   5.667  11.705
 5793WAT      O31329   2.414   1.297  12.156
 5793WAT     H131330   2.364   1.266  12.231
 5793WAT     H231331   2.504   1.301  12.186
 5794WAT      O31332   1.667   0.448  10.872
 5794WAT     H131333   1.638   0.361  10.898
 5794WAT     H231334   1.601   0.477  10.808
 5795WAT      O31335   4.952   4.193   4.613
 5795WAT     H131336   4.935   4.104   4.641
 5795WAT     H231337   4.867   4.237   4.617
 5796WAT      O31338   3.347   1.355   0.137
 5796WAT     H131339   3.425   1.382   0.089
 5796WAT     H231340   3.380   1.297   0.206
 5797WAT      O31341   2.738   4.701   4.124
 5797WAT     H131342   2.809   4.750   4.081
 5797WAT     H231343   2.783   4.628   4.167
 5798WAT      O31344   3.322   1.927   9.222
 5798WAT     H131345   3.293   1.841   9.194
 5798WAT     H231346   3.321   1.923   9.318
 5799WAT      O31347   2.793   4.100  10.450
 5799WAT     H131348   2.824   4.027  10.503
 5799WAT     H231349   2.828   4.084  10.362
 5800WAT      O31350   3.261   5.942   9.274
 5800WAT     H131351   3.250   6.006   9.343
 5800WAT     H231352   3.353   5.916   9.279
 5801WAT      O31353   4.464   4.920   2.661
 5801WAT     H131354   4.505   4.833   2.665
 5801WAT     H231355   4.407   4.923   2.738
 5802WAT      O31356   3.165   5.874   0.654
 5802WAT     H131357   3.175   5.817   0.730
 5802WAT     H231358   3.099   5.938   0.679
 5803WAT      O31359   4.071   1.763   1.030
 5803WAT     H131360   3.988   1.804   1.055
 5803WAT     H231361   4.050   1.669   1.023
 5804WAT      O31362   5.812   0.191   9.250
 5804WAT     H131363   5.826   0.108   9.295
 5804WAT     H231364   5.900   0.223   9.231
 5805WAT      O31365   4.353  -0.012  11.226
 5805WAT     H131366   4.283   0.032  11.178
 5805WAT     H231367   4.389   0.055  11.284
 5806WAT      O31368   4.504   3.391   8.958
 5806WAT     H131369   4.579   3.448   8.942
 5806WAT     H231370   4.469   3.372   8.871
 5807WAT      O31371   4.097   4.923   0.625
 5807WAT     H131372   4.142   4.974   0.557
 5807WAT     H231373   4.162   4.911   0.694
 5808WAT      O31374   6.200   1.419   7.581
 5808WAT     H131375   6.222   1.328   7.560
 5808WAT     H231376   6.201   1.464   7.496
 5809WAT      O31377   2.951   5.024  10.021
 5809WAT     H131378   2.875   5.035  10.079
 5809WAT     H231379   2.914   5.007   9.935
 5810WAT      O31380   4.488   4.723  11.923
 5810WAT     H131381   4.489   4.816  11.899
 5810WAT     H231382   4.449   4.679  11.848
 5811WAT      O31383   0.063   5.893  11.903
 5811WAT     H131384   0.121   5.825  11.936
 5811WAT     H231385   0.010   5.850  11.836
 5812WAT      O31386   6.093   5.879  10.761
 5812WAT     H131387   6.025   5.816  10.736
 5812WAT     H231388   6.056   5.928  10.834
 5813WAT      O31389   5.197   2.887   0.977
 5813WAT     H131390   5.281   2.931   0.983
 5813WAT     H231391   5.213   2.799   1.012
 5814WAT      O31392   3.854   5.718  11.316
 5814WAT     H131393   3.927   5.777  11.334
 5814WAT     H231394   3.875   5.679  11.231
 5815WAT      O31395   5.904   3.659   2.899
 5815WAT     H131396   5.899   3.638   2.806
 5815WAT     H231397   5.997   3.660   2.919
 5816WAT      O31398   4.873   0.616   8.494
 5816WAT     H131399   4.832   0.699   8.472
 5816WAT     H231400   4.852   0.603   8.587
 5817WAT      O31401   5.218   4.626   9.223
 5817WAT     H131402   5.263   4.674   9.153
 5817WAT     H231403   5.237   4.676   9.302
 5818WAT      O31404   4.286   3.744   8.400
 5818WAT     H131405   4.307   3.802   8.327
 5818WAT     H231406   4.229   3.796   8.456
 5819WAT      O31407   3.842   2.625   9.669
 5819WAT     H131408   3.925   2.630   9.621
 5819WAT     H231409   3.794   2.703   9.643
 5820WAT      O31410   5.812   4.595   2.090
 5820WAT     H131411   5.840   4.574   2.179
 5820WAT     H231412   5.823   4.514   2.041
 5821WAT      O31413   1.616   0.068   1.287
 5821WAT     H131414   1.560   0.089   1.212
 5821WAT     H231415   1.559   0.019   1.347
 5822WAT      O31416   3.467   1.554  10.039
 5822WAT     H131417   3.426   1.563  10.124
 5822WAT     H231418   3.536   1.488  10.052
 5823WAT      O31419   2.362   1.226  11.372
 5823WAT     H131420   2.370   1.196  11.463
 5823WAT     H231421   2.453   1.234  11.342
 5824WAT      O31422   5.659   3.404   2.156
 5824WAT     H131423   5.692   3.467   2.221
 5824WAT     H231424   5.636   3.327   2.208
 5825WAT      O31425   4.701   0.333  12.536
 5825WAT     H131426   4.649   0.357  12.459
 5825WAT     H231427   4.791   0.328  12.504
 5826WAT      O31428   1.470   5.211  11.742
 5826WAT     H131429   1.434   5.293  11.776
 5826WAT     H231430   1.476   5.225  11.647
 5827WAT      O31431   5.280   4.719   1.995
 5827WAT     H131432   5.337   4.774   1.940
 5827WAT     H231433   5.211   4.690   1.936
 5828WAT      O31434   5.203   0.217   7.863
 5828WAT     H131435   5.289   0.177   7.856
 5828WAT     H231436   5.218   0.310   7.846
 5829WAT      O31437   4.506   1.530   0.698
 5829WAT     H131438   4.474   1.598   0.639
 5829WAT     H231439   4.571   1.573   0.753
 5830WAT      O31440   0.759   1.142   0.418
 5830WAT     H131441   0.852   1.164   0.406
 5830WAT     H231442   0.734   1.189   0.498
 5831WAT      O31443   5.268   5.010   8.860
 5831WAT     H131444   5.334   4.964   8.807
 5831WAT     H231445   5.319   5.056   8.927
 5832WAT      O31446   1.936   2.713   4.169
 5832WAT     H131447   1.862   2.714   4.109
 5832WAT     H231448   1.899   2.735   4.254
 5833WAT      O31449   6.154   0.277   9.992
 5833WAT     H131450   6.145   0.185  10.019
 5833WAT     H231451   6.248   0.294   9.996
 5834WAT      O31452   2.461   4.477  11.912
 5834WAT     H131453   2.448   4.498  11.820
 5834WAT     H231454   2.475   4.382  11.913
 5835WAT      O31455   4.899   6.141   2.510
 5835WAT     H131456   4.919   6.235   2.516
 5835WAT     H231457   4.985   6.099   2.502
 5836WAT      O31458   1.682   1.583   2.002
 5836WAT     H131459   1.598   1.602   1.960
 5836WAT     H231460   1.710   1.501   1.963
 5837WAT      O31461   5.903   1.011   9.465
 5837WAT     H131462   5.972   0.945   9.458
 5837WAT     H231463   5.840   0.974   9.526
 5838WAT      O31464   1.194   3.843   0.410
 5838WAT     H131465   1.187   3.891   0.492
 5838WAT     H231466   1.183   3.751   0.434
 5839WAT      O31467   0.086   1.221   8.144
 5839WAT     H131468   0.019   1.286   8.165
 5839WAT     H231469   0.063   1.190   8.056
 5840WAT      O31470   2.682   1.689   3.254
 5840WAT     H131471   2.660   1.753   3.187
 5840WAT     H231472   2.597   1.665   3.293
 5841WAT      O31473   4.094   2.940   9.482
 5841WAT     H131474   4.144   2.865   9.514
 5841WAT     H231475   4.015   2.902   9.444
 5842WAT      O31476   2.248   1.745   2.919
 5842WAT     H131477   2.166   1.762   2.872
 5842WAT     H231478   2.295   1.684   2.862
 5843WAT      O31479   3.302   0.691   9.712
 5843WAT     H131480   3.365   0.714   9.643
 5843WAT     H231481   3.331   0.605   9.742
 5844WAT      O31482   0.588   5.186   9.279
 5844WAT     H131483   0.669   5.219   9.318
 5844WAT     H231484   0.536   5.264   9.262
 5845WAT      O31485   0.018   5.078  10.030
 5845WAT     H131486  -0.037   5.154  10.052
 5845WAT     H231487   0.039   5.090   9.938
 5846WAT      O31488   4.128   1.039   3.914
 5846WAT     H131489   4.216   1.015   3.886
 5846WAT     H231490   4.082   1.060   3.833
 5847WAT      O31491   6.101   3.643   7.613
 5847WAT     H131492   6.048   3.586   7.557
 5847WAT     H231493   6.038   3.687   7.670
 5848WAT      O31494   5.815   3.195   9.464
 5848WAT     H131495   5.745   3.258   9.444
 5848WAT     H231496   5.824   3.200   9.560
 5849WAT      O31497   4.466   2.182  10.873
 5849WAT     H131498   4.498   2.137  10.951
 5849WAT     H231499   4.424   2.114  10.821
 5850WAT      O31500   4.504   5.410   0.824
 5850WAT     H131501   4.534   5.447   0.907
 5850WAT     H231502   4.484   5.486   0.769
 5851WAT      O31503   4.110   4.697   2.696
 5851WAT     H131504   4.039   4.633   2.704
 5851WAT     H231505   4.174   4.654   2.639
 5852WAT      O31506   0.361   0.479   0.552
 5852WAT     H131507   0.429   0.453   0.491
 5852WAT     H231508   0.292   0.517   0.497
 5853WAT      O31509   4.174   4.841   8.352
 5853WAT     H131510   4.143   4.828   8.442
 5853WAT     H231511   4.143   4.929   8.330
 5854WAT      O31512   0.555   1.054   7.602
 5854WAT     H131513   0.484   1.097   7.649
 5854WAT     H231514   0.582   0.982   7.659
 5855WAT      O31515   3.477   0.386   4.185
 5855WAT     H131516   3.414   0.314   4.174
 5855WAT     H231517   3.440   0.439   4.256
 5856WAT      O31518   4.875   0.811   1.377
 5856WAT     H131519   4.856   0.858   1.458
 5856WAT     H231520   4.791   0.770   1.353
 5857WAT      O31521   4.733   1.389   1.931
 5857WAT     H131522   4.827   1.403   1.914
 5857WAT     H231523   4.695   1.375   1.844
 5858WAT      O31524   3.524   5.352   2.781
 5858WAT     H131525   3.474   5.306   2.849
 5858WAT     H231526   3.522   5.293   2.706
 5859WAT      O31527   5.351   5.224   4.643
 5859WAT     H131528   5.406   5.146   4.650
 5859WAT     H231529   5.346   5.258   4.732
 5860WAT      O31530   1.632   4.299  10.334
 5860WAT     H131531   1.719   4.300  10.374
 5860WAT     H231532   1.646   4.255  10.249
 5861WAT      O31533   5.639   2.806   2.256
 5861WAT     H131534   5.576   2.811   2.328
 5861WAT     H231535   5.630   2.716   2.223
 5862WAT      O31536   2.617   4.711   1.512
 5862WAT     H131537   2.627   4.806   1.512
 5862WAT     H231538   2.698   4.678   1.473
 5863WAT      O31539   2.084   0.471  -0.005
 5863WAT     H131540   2.046   0.394  -0.047
 5863WAT     H231541   2.047   0.471   0.083
 5864WAT      O31542   5.110   4.501   1.179
 5864WAT     H131543   5.062   4.575   1.142
 5864WAT     H231544   5.200   4.513   1.148
 5865WAT      O31545   2.536   4.205  11.626
 5865WAT     H131546   2.623   4.245  11.614
 5865WAT     H231547   2.541   4.122  11.578
 5866WAT      O31548   0.770   5.216  11.078
 5866WAT     H131549   0.685   5.233  11.036
 5866WAT     H231550   0.833   5.261  11.021
 5867WAT      O31551   6.170   4.700   2.973
 5867WAT     H131552   6.087   4.664   2.942
 5867WAT     H231553   6.235   4.635   2.948
 5868WAT      O31554   3.256   0.030   7.511
 5868WAT     H131555   3.314  -0.042   7.486
 5868WAT     H231556   3.315   0.103   7.529
 5869WAT      O31557   1.113   1.949   1.507
 5869WAT     H131558   1.131   1.869   1.556
 5869WAT     H231559   1.083   1.918   1.421
 5870WAT      O31560   1.808   2.312   1.926
 5870WAT     H131561   1.876   2.310   1.858
 5870WAT     H231562   1.759   2.392   1.909
 5871WAT      O31563   2.623   1.704   7.601
 5871WAT     H131564   2.587   1.710   7.513
 5871WAT     H231565   2.548   1.679   7.655
 5872WAT      O31566   4.484   0.543   3.075
 5872WAT     H131567   4.462   0.627   3.114
 5872WAT     H231568   4.419   0.530   3.006
 5873WAT      O31569   2.616   1.844  11.081
 5873WAT     H131570   2.538   1.790  11.066
 5873WAT     H231571   2.684   1.782  11.106
 5874WAT      O31572   5.356   0.006   2.232
 5874WAT     H131573   5.276  -0.009   2.181
 5874WAT     H231574   5.372   0.100   2.224
 5875WAT      O31575   2.165   0.572  10.336
 5875WAT     H131576   2.172   0.640  10.269
 5875WAT     H231577   2.151   0.619  10.417
 5876WAT      O31578   3.182   0.003  12.498
 5876WAT     H131579   3.109  -0.029  12.552
 5876WAT     H231580   3.171   0.098  12.498
 5877WAT      O31581   1.965   1.056   7.776
 5877WAT     H131582   2.014   1.097   7.704
 5877WAT     H231583   1.948   1.128   7.837
 5878WAT      O31584   4.165   3.687   9.723
 5878WAT     H131585   4.252   3.686   9.762
 5878WAT     H231586   4.131   3.599   9.735
 5879WAT      O31587   4.192   5.214   2.503
 5879WAT     H131588   4.101   5.189   2.520
 5879WAT     H231589   4.199   5.303   2.535
 5880WAT      O31590   1.091   1.087   3.949
 5880WAT     H131591   1.022   1.110   4.011
 5880WAT     H231592   1.099   0.992   3.955
 5881WAT      O31593   3.465   1.846   2.169
 5881WAT     H131594   3.475   1.938   2.145
 5881WAT     H231595   3.520   1.799   2.108
 5882WAT      O31596   2.036   5.852  10.626
 5882WAT     H131597   2.047   5.798  10.548
 5882WAT     H231598   2.015   5.939  10.592
 5883WAT      O31599   1.962   0.973   2.500
 5883WAT     H131600   1.907   0.915   2.552
 5883WAT     H231601   1.933   0.959   2.410
 5884WAT      O31602   0.294   4.185   9.597
 5884WAT     H131603   0.284   4.153   9.507
 5884WAT     H231604   0.221   4.146   9.644
 5885WAT      O31605   2.663   0.634   0.945
 5885WAT     H131606   2.665   0.541   0.922
 5885WAT     H231607   2.575   0.648   0.981
 5886WAT      O31608   0.326   5.207  12.115
 5886WAT     H131609   0.260   5.251  12.062
 5886WAT     H231610   0.327   5.117  12.081
 5887WAT      O31611   4.777   1.713  10.201
 5887WAT     H131612   4.815   1.683  10.283
 5887WAT     H231613   4.794   1.807  10.199
 5888WAT      O31614   4.174   2.200  10.529
 5888WAT     H131615   4.080   2.195  10.545
 5888WAT     H231616   4.200   2.109  10.512
 5889WAT      O31617   0.298   5.940  10.398
 5889WAT     H131618   0.290   5.986  10.482
 5889WAT     H231619   0.236   5.867  10.405
 5890WAT      O31620   4.674   3.764   2.804
 5890WAT     H131621   4.615   3.803   2.739
 5890WAT     H231622   4.761   3.783   2.771
 5891WAT      O31623   1.472   3.406   1.742
 5891WAT     H131624   1.495   3.453   1.822
 5891WAT     H231625   1.424   3.329   1.772
 5892WAT      O31626   1.583   0.904   2.622
 5892WAT     H131627   1.561   0.855   2.543
 5892WAT     H231628   1.591   0.837   2.690
 5893WAT      O31629   0.587   4.568  12.581
 5893WAT     H131630   0.644   4.614  12.520
 5893WAT     H231631   0.521   4.527  12.524
 5894WAT      O31632   4.713   3.693   9.008
 5894WAT     H131633   4.702   3.735   9.093
 5894WAT     H231634   4.654   3.741   8.950
 5895WAT      O31635   1.732   4.238   9.089
 5895WAT     H131636   1.654   4.191   9.059
 5895WAT     H231637   1.698   4.310   9.143
 5896WAT      O31638   4.290   2.262   7.904
 5896WAT     H131639   4.284   2.332   7.969
 5896WAT     H231640   4.314   2.185   7.955
 5897WAT      O31641   5.185   0.372   0.818
 5897WAT     H131642   5.092   0.390   0.808
 5897WAT     H231643   5.200   0.290   0.771
 5898WAT      O31644   3.266   3.897   4.498
 5898WAT     H131645   3.321   3.964   4.540
 5898WAT     H231646   3.286   3.817   4.546
 5899WAT      O31647   0.410   0.964   3.004
 5899WAT     H131648   0.436   1.052   3.031
 5899WAT     H231649   0.485   0.931   2.955
 5900WAT      O31650   5.017   5.843   4.068
 5900WAT     H131651   5.031   5.787   4.144
 5900WAT     H231652   4.922   5.844   4.056
 5901WAT      O31653   1.884   5.331   2.484
 5901WAT     H131654   1.961   5.342   2.539
 5901WAT     H231655   1.896   5.246   2.443
 5902WAT      O31656   0.717   3.312   3.792
 5902WAT     H131657   0.743   3.357   3.712
 5902WAT     H231658   0.674   3.232   3.762
 5903WAT      O31659   4.859   0.348   0.553
 5903WAT     H131660   4.814   0.396   0.483
 5903WAT     H231661   4.875   0.261   0.516
 5904WAT      O31662   1.669   2.504   0.432
 5904WAT     H131663   1.676   2.595   0.458
 5904WAT     H231664   1.681   2.505   0.337
 5905WAT      O31665   4.974   1.047   4.994
 5905WAT     H131666   4.996   1.139   4.989
 5905WAT     H231667   4.886   1.045   5.032
 5906WAT      O31668   0.122   1.531   2.802
 5906WAT     H131669   0.048   1.516   2.742
 5906WAT     H231670   0.136   1.446   2.843
 5907WAT      O31671   4.493   0.476   9.227
 5907WAT     H131672   4.437   0.460   9.151
 5907WAT     H231673   4.576   0.432   9.206
 5908WAT      O31674   1.749   3.942   3.616
 5908WAT     H131675   1.837   3.931   3.652
 5908WAT     H231676   1.705   3.859   3.633
 5909WAT      O31677   4.626   5.987   2.048
 5909WAT     H131678   4.617   5.955   2.138
 5909WAT     H231679   4.635   6.082   2.058
 5910WAT      O31680   5.702   2.698  11.841
 5910WAT     H131681   5.771   2.714  11.775
 5910WAT     H231682   5.623   2.682  11.789
 5911WAT      O31683   2.757   2.791   0.729
 5911WAT     H131684   2.694   2.772   0.660
 5911WAT     H231685   2.842   2.790   0.685
 5912WAT      O31686   0.682   2.585   2.244
 5912WAT     H131687   0.709   2.594   2.335
 5912WAT     H231688   0.607   2.525   2.247
 5913WAT      O31689   4.923   0.455   0.806
 5913WAT     H131690   4.897   0.407   0.727
 5913WAT     H231691   4.935   0.546   0.776
 5914WAT      O31692   3.919   3.457   8.695
 5914WAT     H131693   3.961   3.495   8.771
 5914WAT     H231694   3.838   3.418   8.729
 5915WAT      O31695   5.783   4.310   0.017
 5915WAT     H131696   5.877   4.321  -0.001
 5915WAT     H231697   5.748   4.400   0.017
 5916WAT      O31698   0.605   3.511  11.170
 5916WAT     H131699   0.613   3.477  11.259
 5916WAT     H231700   0.521   3.477  11.139
 5917WAT      O31701   1.359   1.986   0.862
 5917WAT     H131702   1.449   2.007   0.887
 5917WAT     H231703   1.329   2.063   0.814
 5918WAT      O31704   0.940   6.034  12.396
 5918WAT     H131705   0.885   6.103  12.433
 5918WAT     H231706   1.023   6.041  12.443
 5919WAT      O31707   1.177   0.283   9.589
 5919WAT     H131708   1.125   0.259   9.666
 5919WAT     H231709   1.162   0.377   9.578
 5920WAT      O31710   3.672   4.580   8.066
 5920WAT     H131711   3.580   4.563   8.045
 5920WAT     H231712   3.670   4.660   8.119
 5921WAT      O31713   1.416   1.516  11.087
 5921WAT     H131714   1.448   1.427  11.101
 5921WAT     H231715   1.458   1.567  11.156
 5922WAT      O31716   2.571   3.577  10.275
 5922WAT     H131717   2.567   3.543  10.364
 5922WAT     H231718   2.489   3.626  10.265
 5923WAT      O31719   0.796   4.117  11.825
 5923WAT     H131720   0.712   4.097  11.866
 5923WAT     H231721   0.785   4.091  11.733
 5924WAT      O31722   3.957   3.749  10.370
 5924WAT     H131723   3.972   3.677  10.432
 5924WAT     H231724   3.958   3.828  10.424
 5925WAT      O31725   2.720   4.733   9.523
 5925WAT     H131726   2.793   4.682   9.557
 5925WAT     H231727   2.706   4.801   9.589
 5926WAT      O31728   4.243   1.995  10.203
 5926WAT     H131729   4.199   1.989  10.288
 5926WAT     H231730   4.259   2.088  10.191
 5927WAT      O31731   2.702   0.246   3.153
 5927WAT     H131732   2.712   0.183   3.082
 5927WAT     H231733   2.734   0.200   3.230
 5928WAT      O31734   4.813   4.772  12.059
 5928WAT     H131735   4.789   4.863  12.073
 5928WAT     H231736   4.891   4.758  12.112
 5929WAT      O31737   2.294   0.232   4.253
 5929WAT     H131738   2.201   0.236   4.275
 5929WAT     H231739   2.336   0.196   4.331
 5930WAT      O31740   3.195   4.908   8.780
 5930WAT     H131741   3.177   4.977   8.844
 5930WAT     H231742   3.109   4.872   8.759
 5931WAT      O31743   0.946   3.640   3.785
 5931WAT     H131744   0.862   3.608   3.753
 5931WAT     H231745   0.984   3.566   3.832
 5932WAT      O31746   2.427   1.856  10.659
 5932WAT     H131747   2.377   1.799  10.718
 5932WAT     H231748   2.418   1.814  10.573
 5933WAT      O31749   0.268   5.322   8.329
 5933WAT     H131750   0.218   5.391   8.373
 5933WAT     H231751   0.246   5.332   8.236
 5934WAT      O31752   2.113   4.917  11.600
 5934WAT     H131753   2.121   4.924  11.504
 5934WAT     H231754   2.049   4.985  11.623
 5935WAT      O31755   6.046   3.531  10.618
 5935WAT     H131756   5.996   3.575  10.686
 5935WAT     H231757   6.135   3.566  10.627
 5936WAT      O31758   0.699   2.913   1.989
 5936WAT     H131759   0.786   2.878   2.009
 5936WAT     H231760   0.648   2.837   1.961
 5937WAT      O31761   6.061   1.267  10.069
 5937WAT     H131762   6.071   1.257   9.975
 5937WAT     H231763   6.073   1.178  10.104
 5938WAT      O31764   5.781   1.001   2.906
 5938WAT     H131765   5.862   0.950   2.907
 5938WAT     H231766   5.801   1.076   2.850
 5939WAT      O31767   6.061   3.187   0.204
 5939WAT     H131768   6.136   3.221   0.253
 5939WAT     H231769   5.985   3.232   0.242
 5940WAT      O31770   0.095   2.508   0.738
 5940WAT     H131771   0.147   2.440   0.695
 5940WAT     H231772   0.005   2.478   0.730
 5941WAT      O31773   5.565   3.931  10.512
 5941WAT     H131774   5.504   3.978  10.454
 5941WAT     H231775   5.578   3.846  10.470
 5942WAT      O31776   1.403   1.124  10.041
 5942WAT     H131777   1.422   1.059  10.109
 5942WAT     H231778   1.308   1.137  10.047
 5943WAT      O31779   1.596   1.200   1.670
 5943WAT     H131780   1.625   1.123   1.621
 5943WAT     H231781   1.513   1.173   1.710
 5944WAT      O31782   1.301   3.735   9.381
 5944WAT     H131783   1.215   3.722   9.423
 5944WAT     H231784   1.350   3.656   9.403
 5945WAT      O31785   2.427   2.563   9.915
 5945WAT     H131786   2.402   2.513   9.993
 5945WAT     H231787   2.402   2.653   9.934
 5946WAT      O31788   0.608   3.001   8.590
 5946WAT     H131789   0.532   2.944   8.581
 5946WAT     H231790   0.668   2.973   8.520
 5947WAT      O31791   1.661   5.867   3.742
 5947WAT     H131792   1.626   5.940   3.794
 5947WAT     H231793   1.744   5.845   3.785
 5948WAT      O31794   5.404   0.228   2.067
 5948WAT     H131795   5.424   0.236   1.974
 5948WAT     H231796   5.312   0.254   2.074
 5949WAT      O31797   2.015   6.211   4.035
 5949WAT     H131798   1.933   6.243   3.997
 5949WAT     H231799   1.989   6.171   4.118
 5950WAT      O31800   0.403   3.716   0.600
 5950WAT     H131801   0.342   3.660   0.552
 5950WAT     H231802   0.457   3.655   0.650
 5951WAT      O31803   3.996   0.357   2.498
 5951WAT     H131804   3.954   0.273   2.479
 5951WAT     H231805   3.928   0.422   2.485
 5952WAT      O31806   5.804   0.153   0.138
 5952WAT     H131807   5.799   0.248   0.139
 5952WAT     H231808   5.883   0.132   0.187
 5953WAT      O31809   4.125   2.662  10.250
 5953WAT     H131810   4.120   2.575  10.288
 5953WAT     H231811   4.210   2.696  10.279
 5954WAT      O31812   0.699   0.881   4.698
 5954WAT     H131813   0.616   0.858   4.741
 5954WAT     H231814   0.752   0.802   4.705
 5955WAT      O31815   4.553   6.010   9.997
 5955WAT     H131816   4.594   5.986   9.914
 5955WAT     H231817   4.538   6.104   9.989
 5956WAT      O31818   0.698   6.144   2.165
 5956WAT     H131819   0.713   6.076   2.099
 5956WAT     H231820   0.705   6.226   2.116
 5957WAT      O31821   0.042   0.023  11.925
 5957WAT     H131822   0.044   0.058  11.836
 5957WAT     H231823  -0.046  -0.014  11.935
 5958WAT      O31824   3.339   1.334   2.432
 5958WAT     H131825   3.401   1.262   2.426
 5958WAT     H231826   3.313   1.336   2.524
 5959WAT      O31827   0.831   0.622   1.158
 5959WAT     H131828   0.827   0.645   1.065
 5959WAT     H231829   0.741   0.602   1.182
 5960WAT      O31830   5.606   3.192  11.440
 5960WAT     H131831   5.538   3.128  11.419
 5960WAT     H231832   5.653   3.206  11.358
 5961WAT      O31833   3.032   2.733   0.937
 5961WAT     H131834   3.061   2.682   0.861
 5961WAT     H231835   3.033   2.824   0.907
 5962WAT      O31836   1.924   4.784   8.695
 5962WAT     H131837   1.989   4.845   8.728
 5962WAT     H231838   1.846   4.802   8.748
 5963WAT      O31839   1.409   4.756   0.852
 5963WAT     H131840   1.332   4.811   0.857
 5963WAT     H231841   1.410   4.725   0.761
 5964WAT      O31842   5.396   2.961   1.996
 5964WAT     H131843   5.372   3.053   2.003
 5964WAT     H231844   5.490   2.962   1.980
 5965WAT      O31845   3.287   1.992   1.396
 5965WAT     H131846   3.289   2.046   1.475
 5965WAT     H231847   3.197   1.959   1.391
 5966WAT      O31848   5.297   2.144   1.317
 5966WAT     H131849   5.287   2.086   1.392
 5966WAT     H231850   5.251   2.224   1.343
 5967WAT      O31851   5.335   5.809   1.833
 5967WAT     H131852   5.313   5.737   1.892
 5967WAT     H231853   5.301   5.782   1.748
 5968WAT      O31854   4.717   0.142   3.432
 5968WAT     H131855   4.649   0.167   3.369
 5968WAT     H231856   4.737   0.051   3.410
 5969WAT      O31857   2.775   5.081   3.515
 5969WAT     H131858   2.825   5.126   3.447
 5969WAT     H231859   2.689   5.064   3.476
 5970WAT      O31860   1.307   4.750  11.982
 5970WAT     H131861   1.321   4.703  12.064
 5970WAT     H231862   1.253   4.826  12.006
 5971WAT      O31863   4.675   5.808   2.709
 5971WAT     H131864   4.677   5.781   2.617
 5971WAT     H231865   4.767   5.817   2.734
 5972WAT      O31866   2.016   3.068   0.068
 5972WAT     H131867   1.948   3.104   0.125
 5972WAT     H231868   2.029   3.136   0.001
 5973WAT      O31869   1.002   1.406  11.003
 5973WAT     H131870   1.051   1.332  11.039
 5973WAT     H231871   0.911   1.390  11.030
 5974WAT      O31872   4.872   2.403   2.547
 5974WAT     H131873   4.887   2.384   2.639
 5974WAT     H231874   4.905   2.492   2.535
 5975WAT      O31875   1.398   4.422  10.757
 5975WAT     H131876   1.476   4.372  10.731
 5975WAT     H231877   1.348   4.363  10.813
 5976WAT      O31878   2.847   3.611   2.792
 5976WAT     H131879   2.879   3.663   2.865
 5976WAT     H231880   2.912   3.626   2.723
 5977WAT      O31881   5.133   3.132  12.615
 5977WAT     H131882   5.135   3.190  12.691
 5977WAT     H231883   5.082   3.056  12.643
 5978WAT      O31884   5.926   4.777  10.195
 5978WAT     H131885   5.850   4.796  10.251
 5978WAT     H231886   5.973   4.708  10.241
 5979WAT      O31887   2.524   0.544   0.577
 5979WAT     H131888   2.547   0.626   0.534
 5979WAT     H231889   2.523   0.480   0.506
 5980WAT      O31890   3.910   0.127  12.099
 5980WAT     H131891   3.911   0.210  12.052
 5980WAT     H231892   3.852   0.141  12.173
 5981WAT      O31893   4.634   4.174  12.339
 5981WAT     H131894   4.580   4.182  12.418
 5981WAT     H231895   4.700   4.108  12.360
 5982WAT      O31896   4.023   5.817  12.610
 5982WAT     H131897   4.058   5.905  12.620
 5982WAT     H231898   3.948   5.828  12.552
 5983WAT      O31899   0.018   4.139   0.196
 5983WAT     H131900   0.077   4.111   0.125
 5983WAT     H231901   0.063   4.112   0.276
 5984WAT      O31902   1.183   3.857  10.875
 5984WAT     H131903   1.142   3.938  10.844
 5984WAT     H231904   1.271   3.883  10.899
 5985WAT      O31905   2.553   0.158   4.679
 5985WAT     H131906   2.505   0.138   4.598
 5985WAT     H231907   2.530   0.249   4.698
 5986WAT      O31908   4.947   3.891   4.400
 5986WAT     H131909   4.937   3.907   4.493
 5986WAT     H231910   4.899   3.962   4.358
 5987WAT      O31911   3.998   4.332  11.412
 5987WAT     H131912   4.057   4.407  11.400
 5987WAT     H231913   4.020   4.274  11.339
 5988WAT      O31914   4.384   3.522   8.284
 5988WAT     H131915   4.363   3.608   8.320
 5988WAT     H231916   4.424   3.475   8.357
 5989WAT      O31917   4.837   2.228  11.930
 5989WAT     H131918   4.900   2.293  11.960
 5989WAT     H231919   4.876   2.144  11.954
 5990WAT      O31920   1.333   5.411  12.485
 5990WAT     H131921   1.267   5.457  12.537
 5990WAT     H231922   1.382   5.481  12.441
 5991WAT      O31923   5.472   0.366   0.903
 5991WAT     H131924   5.483   0.400   0.815
 5991WAT     H231925   5.383   0.391   0.928
 5992WAT      O31926   2.130   0.827   9.197
 5992WAT     H131927   2.184   0.846   9.119
 5992WAT     H231928   2.128   0.732   9.202
 5993WAT      O31929   0.645   0.094  10.959
 5993WAT     H131930   0.659   0.188  10.943
 5993WAT     H231931   0.579   0.069  10.894
 5994WAT      O31932   0.387   4.566  10.975
 5994WAT     H131933   0.480   4.569  10.953
 5994WAT     H231934   0.373   4.476  11.006
 5995WAT      O31935   5.523   6.065   8.784
 5995WAT     H131936   5.485   6.090   8.868
 5995WAT     H231937   5.599   6.123   8.773
 5996WAT      O31938   0.310   1.207   1.888
 5996WAT     H131939   0.373   1.274   1.912
 5996WAT     H231940   0.231   1.229   1.937
 5997WAT      O31941   5.400   6.194  -0.010
 5997WAT     H131942   5.480   6.201   0.041
 5997WAT     H231943   5.366   6.107   0.009
 5998WAT      O31944   5.644   5.429   1.294
 5998WAT     H131945   5.645   5.480   1.375
 5998WAT     H231946   5.577   5.361   1.310
 5999WAT      O31947   4.617   5.167   1.099
 5999WAT     H131948   4.635   5.240   1.158
 5999WAT     H231949   4.566   5.106   1.151
 6000WAT      O31950   4.133   5.565   8.881
 6000WAT     H131951   4.043   5.593   8.891
 6000WAT     H231952   4.181   5.643   8.853
 6001WAT      O31953   0.348   0.916   1.121
 6001WAT     H131954   0.358   0.829   1.160
 6001WAT     H231955   0.254   0.934   1.127
 6002WAT      O31956   4.213   0.621   9.066
 6002WAT     H131957   4.123   0.588   9.062
 6002WAT     H231958   4.241   0.602   9.156
 6003WAT      O31959   3.518   2.403  11.545
 6003WAT     H131960   3.448   2.337  11.545
 6003WAT     H231961   3.599   2.352  11.545
 6004WAT      O31962   4.853   2.631   3.315
 6004WAT     H131963   4.798   2.553   3.316
 6004WAT     H231964   4.901   2.628   3.398
 6005WAT      O31965   0.699   5.153  11.876
 6005WAT     H131966   0.663   5.238  11.901
 6005WAT     H231967   0.743   5.169  11.793
 6006WAT      O31968   4.768   4.315   7.982
 6006WAT     H131969   4.774   4.376   7.908
 6006WAT     H231970   4.775   4.228   7.943
 6007WAT      O31971   3.222   6.182  10.225
 6007WAT     H131972   3.252   6.097  10.193
 6007WAT     H231973   3.222   6.173  10.320
 6008WAT      O31974   4.268   3.125   3.393
 6008WAT     H131975   4.224   3.135   3.477
 6008WAT     H231976   4.209   3.070   3.341
 6009WAT      O31977   4.616   3.312   3.683
 6009WAT     H131978   4.571   3.299   3.599
 6009WAT     H231979   4.597   3.402   3.707
 6010WAT      O31980   3.056   2.877   3.512
 6010WAT     H131981   3.067   2.904   3.603
 6010WAT     H231982   3.046   2.781   3.517
 6011WAT      O31983   2.725   2.873   1.326
 6011WAT     H131984   2.753   2.785   1.348
 6011WAT     H231985   2.753   2.885   1.235
 6012WAT      O31986   5.540   1.509   2.256
 6012WAT     H131987   5.583   1.464   2.184
 6012WAT     H231988   5.462   1.456   2.274
 6013WAT      O31989   1.542   4.540  12.144
 6013WAT     H131990   1.465   4.568  12.193
 6013WAT     H231991   1.543   4.598  12.068
 6014WAT      O31992   3.436   4.135   4.178
 6014WAT     H131993   3.470   4.209   4.228
 6014WAT     H231994   3.507   4.071   4.179
 6015WAT      O31995   1.591   1.587  11.977
 6015WAT     H131996   1.506   1.597  12.021
 6015WAT     H231997   1.570   1.547  11.893
 6016WAT      O31998   0.298   6.134   8.262
 6016WAT     H131999   0.341   6.212   8.228
 6016WAT     H232000   0.316   6.066   8.197
 6017WAT      O32001   2.433   0.046   1.727
 6017WAT     H132002   2.414   0.090   1.644
 6017WAT     H232003   2.520   0.077   1.751
 6018WAT      O32004   5.122   4.620   0.740
 6018WAT     H132005   5.170   4.537   0.742
 6018WAT     H232006   5.155   4.669   0.815
 6019WAT      O32007   6.196   3.420   0.891
 6019WAT     H132008   6.102   3.421   0.875
 6019WAT     H232009   6.215   3.331   0.921
 6020WAT      O32010   1.077   0.536   9.594
 6020WAT     H132011   1.016   0.547   9.667
 6020WAT     H232012   1.127   0.617   9.592
 6021WAT      O32013   3.840   3.538  12.225
 6021WAT     H132014   3.932   3.551  12.205
 6021WAT     H232015   3.833   3.444  12.243
 6022WAT      O32016   4.381   2.407   2.021
 6022WAT     H132017   4.471   2.437   2.029
 6022WAT     H232018   4.357   2.426   1.930
 6023WAT      O32019   5.013   0.171   2.455
 6023WAT     H132020   5.096   0.177   2.503
 6023WAT     H232021   5.036   0.194   2.365
 6024WAT      O32022   3.954   1.741   0.711
 6024WAT     H132023   3.935   1.648   0.694
 6024WAT     H232024   3.883   1.788   0.668
 6025WAT      O32025   2.642   5.331   3.892
 6025WAT     H132026   2.714   5.394   3.884
 6025WAT     H232027   2.571   5.381   3.932
 6026WAT      O32028   0.363   0.260   3.547
 6026WAT     H132029   0.373   0.334   3.487
 6026WAT     H232030   0.452   0.228   3.561
 6027WAT      O32031   4.939   3.665  11.728
 6027WAT     H132032   4.843   3.666  11.729
 6027WAT     H232033   4.961   3.709  11.645
 6028WAT      O32034   6.042   5.903   0.078
 6028WAT     H132035   6.024   5.830   0.019
 6028WAT     H232036   6.135   5.922   0.065
 6029WAT      O32037   5.130   4.954   8.312
 6029WAT     H132038   5.179   4.921   8.236
 6029WAT     H232039   5.060   5.007   8.274
 6030WAT      O32040   0.422   1.233   9.393
 6030WAT     H132041   0.342   1.223   9.342
 6030WAT     H232042   0.416   1.321   9.431
 6031WAT      O32043   5.876   1.526   1.551
 6031WAT     H132044   5.798   1.486   1.513
 6031WAT     H232045   5.843   1.596   1.608
 6032WAT      O32046   4.228   2.462  10.635
 6032WAT     H132047   4.155   2.521  10.618
 6032WAT     H232048   4.208   2.383  10.584
 6033WAT      O32049   0.769   3.270   2.205
 6033WAT     H132050   0.691   3.219   2.186
 6033WAT     H232051   0.836   3.236   2.145
 6034WAT      O32052   3.983   5.155  10.072
 6034WAT     H132053   4.009   5.200   9.991
 6034WAT     H232054   3.911   5.208  10.107
 6035WAT      O32055   0.289   1.762  10.105
 6035WAT     H132056   0.194   1.758  10.100
 6035WAT     H232057   0.317   1.769  10.013
 6036WAT      O32058   3.932   3.350  11.720
 6036WAT     H132059   3.841   3.374  11.737
 6036WAT     H232060   3.971   3.430  11.685
 6037WAT      O32061   1.091   1.834   4.281
 6037WAT     H132062   1.108   1.845   4.375
 6037WAT     H232063   1.086   1.739   4.268
 6038WAT      O32064   0.149   4.344   4.371
 6038WAT     H132065   0.190   4.306   4.293
 6038WAT     H232066   0.080   4.401   4.337
 6039WAT      O32067   1.802   1.890   9.769
 6039WAT     H132068   1.859   1.850   9.834
 6039WAT     H232069   1.861   1.919   9.699
 6040WAT      O32070   0.243   4.732   1.905
 6040WAT     H132071   0.321   4.778   1.936
 6040WAT     H232072   0.182   4.734   1.980
 6041WAT      O32073   0.961   1.270   2.846
 6041WAT     H132074   0.922   1.357   2.853
 6041WAT     H232075   1.046   1.285   2.804
 6042WAT      O32076   5.697   2.536   9.201
 6042WAT     H132077   5.710   2.445   9.175
 6042WAT     H232078   5.755   2.586   9.142
 6043WAT      O32079   3.750   0.076  10.314
 6043WAT     H132080   3.796  -0.004  10.342
 6043WAT     H232081   3.660   0.048  10.302
 6044WAT      O32082   2.688   0.915   2.344
 6044WAT     H132083   2.599   0.883   2.363
 6044WAT     H232084   2.743   0.875   2.412
 6045WAT      O32085   0.643   2.213   2.078
 6045WAT     H132086   0.734   2.193   2.102
 6045WAT     H232087   0.649   2.248   1.989
 6046WAT      O32088   3.959   1.571  11.519
 6046WAT     H132089   3.978   1.627  11.594
 6046WAT     H232090   4.042   1.531  11.497
 6047WAT      O32091   3.982   3.631   9.216
 6047WAT     H132092   3.975   3.726   9.216
 6047WAT     H232093   4.012   3.608   9.304
 6048WAT      O32094   4.093   4.144   9.667
 6048WAT     H132095   4.163   4.105   9.614
 6048WAT     H232096   4.013   4.102   9.636
 6049WAT      O32097   6.034   5.137   3.575
 6049WAT     H132098   6.097   5.080   3.531
 6049WAT     H232099   5.994   5.188   3.505
 6050WAT      O32100   4.598   1.087   2.355
 6050WAT     H132101   4.530   1.044   2.304
 6050WAT     H232102   4.631   1.156   2.297
 6051WAT      O32103   2.800   0.381  11.635
 6051WAT     H132104   2.876   0.437  11.648
 6051WAT     H232105   2.739   0.434  11.584
 6052WAT      O32106   2.109   3.399   4.580
 6052WAT     H132107   2.181   3.358   4.628
 6052WAT     H232108   2.148   3.477   4.541
 6053WAT      O32109   5.874   0.466   0.217
 6053WAT     H132110   5.954   0.431   0.177
 6053WAT     H232111   5.884   0.561   0.211
 6054WAT      O32112   5.507   3.329   8.432
 6054WAT     H132113   5.519   3.268   8.360
 6054WAT     H232114   5.503   3.273   8.510
 6055WAT      O32115   0.886   1.054   2.953
 6055WAT     H132116   0.916   1.126   2.897
 6055WAT     H232117   0.822   1.008   2.899
 6056WAT      O32118   1.686  -0.008   8.341
 6056WAT     H132119   1.767  -0.007   8.291
 6056WAT     H232120   1.654   0.082   8.338
 6057WAT      O32121   0.754   3.378   0.810
 6057WAT     H132122   0.739   3.374   0.905
 6057WAT     H232123   0.849   3.379   0.801
 6058WAT      O32124   2.788   2.171   9.322
 6058WAT     H132125   2.761   2.081   9.339
 6058WAT     H232126   2.719   2.224   9.362
 6059WAT      O32127   3.150   3.081   2.497
 6059WAT     H132128   3.151   3.052   2.405
 6059WAT     H232129   3.057   3.089   2.518
 6060WAT      O32130   5.048   3.851   0.711
 6060WAT     H132131   5.006   3.786   0.654
 6060WAT     H232132   5.015   3.831   0.798
 6061WAT      O32133   3.571   4.051  10.599
 6061WAT     H132134   3.529   4.060  10.514
 6061WAT     H232135   3.566   4.138  10.639
 6062WAT      O32136   0.106   4.219   2.876
 6062WAT     H132137   0.080   4.243   2.965
 6062WAT     H232138   0.055   4.141   2.855
 6063WAT      O32139   3.666   0.138  10.669
 6063WAT     H132140   3.642   0.074  10.602
 6063WAT     H232141   3.658   0.091  10.752
 6064WAT      O32142   4.356   3.970   9.657
 6064WAT     H132143   4.409   3.916   9.714
 6064WAT     H232144   4.321   4.039   9.714
 6065WAT      O32145   2.648   2.037  10.580
 6065WAT     H132146   2.721   2.008  10.635
 6065WAT     H232147   2.574   1.983  10.609
 6066WAT      O32148   3.453   1.669   0.627
 6066WAT     H132149   3.534   1.633   0.592
 6066WAT     H232150   3.386   1.639   0.566
 6067WAT      O32151   2.486   3.354   0.770
 6067WAT     H132152   2.581   3.348   0.776
 6067WAT     H232153   2.464   3.309   0.689
 6068WAT      O32154   0.586   5.832   0.756
 6068WAT     H132155   0.681   5.843   0.753
 6068WAT     H232156   0.551   5.920   0.741
 6069WAT      O32157   6.125   5.716   4.510
 6069WAT     H132158   6.115   5.768   4.589
 6069WAT     H232159   6.051   5.655   4.512
 6070WAT      O32160   6.122   2.481   7.721
 6070WAT     H132161   6.142   2.574   7.730
 6070WAT     H232162   6.037   2.480   7.676
 6071WAT      O32163   0.934   0.996  11.844
 6071WAT     H132164   0.872   0.923  11.838
 6071WAT     H232165   0.916   1.036  11.929
 6072WAT      O32166   6.106   0.024   8.407
 6072WAT     H132167   6.025  -0.026   8.421
 6072WAT     H232168   6.078   0.104   8.363
 6073WAT      O32169   6.090   5.571   1.139
 6073WAT     H132170   6.030   5.525   1.197
 6073WAT     H232171   6.153   5.505   1.111
 6074WAT      O32172   2.123   0.505  11.902
 6074WAT     H132173   2.106   0.506  11.996
 6074WAT     H232174   2.037   0.510  11.861
 6075WAT      O32175   6.047   2.362   4.560
 6075WAT     H132176   5.993   2.397   4.489
 6075WAT     H232177   6.137   2.370   4.527
 6076WAT      O32178   1.212   5.881  11.580
 6076WAT     H132179   1.262   5.876  11.662
 6076WAT     H232180   1.163   5.963  11.587
 6077WAT      O32181   2.634   2.100   0.966
 6077WAT     H132182   2.577   2.068   1.036
 6077WAT     H232183   2.722   2.076   0.993
 6078WAT      O32184   1.188   3.238  11.869
 6078WAT     H132185   1.107   3.287  11.853
 6078WAT     H232186   1.236   3.246  11.786
 6079WAT      O32187   1.410   4.190   9.073
 6079WAT     H132188   1.336   4.153   9.025
 6079WAT     H232189   1.416   4.137   9.152
 6080WAT      O32190   3.982   3.386   3.671
 6080WAT     H132191   4.057   3.433   3.634
 6080WAT     H232192   3.913   3.453   3.676
 6081WAT      O32193   1.867   3.222   0.282
 6081WAT     H132194   1.833   3.212   0.371
 6081WAT     H232195   1.859   3.315   0.263
 6082WAT      O32196   5.184   4.002   1.639
 6082WAT     H132197   5.096   3.964   1.646
 6082WAT     H232198   5.224   3.983   1.724
 6083WAT      O32199   1.725   5.822   8.457
 6083WAT     H132200   1.677   5.871   8.389
 6083WAT     H232201   1.678   5.842   8.538
 6084WAT      O32202   1.697   3.266  11.248
 6084WAT     H132203   1.704   3.173  11.226
 6084WAT     H232204   1.766   3.281  11.312
 6085WAT      O32205   2.343   3.734  11.472
 6085WAT     H132206   2.268   3.734  11.412
 6085WAT     H232207   2.405   3.672  11.433
 6086WAT      O32208   0.191   4.014   1.508
 6086WAT     H132209   0.114   4.068   1.487
 6086WAT     H232210   0.185   4.001   1.603
 6087WAT      O32211   2.930   5.166   2.072
 6087WAT     H132212   2.839   5.188   2.092
 6087WAT     H232213   2.944   5.080   2.112
 6088WAT      O32214   0.796   5.553   1.411
 6088WAT     H132215   0.832   5.630   1.454
 6088WAT     H232216   0.871   5.493   1.402
 6089WAT      O32217   1.768   4.972   0.988
 6089WAT     H132218   1.862   4.964   0.978
 6089WAT     H232219   1.732   4.945   0.903
 6090WAT      O32220   1.578   3.442   8.857
 6090WAT     H132221   1.565   3.511   8.791
 6090WAT     H232222   1.672   3.442   8.874
 6091WAT      O32223   1.581   5.590   9.455
 6091WAT     H132224   1.572   5.495   9.445
 6091WAT     H232225   1.616   5.602   9.543
 6092WAT      O32226   1.669   0.626  11.466
 6092WAT     H132227   1.745   0.630  11.524
 6092WAT     H232228   1.617   0.553  11.500
 6093WAT      O32229   6.144   3.698   9.585
 6093WAT     H132230   6.144   3.780   9.535
 6093WAT     H232231   6.058   3.697   9.628
 6094WAT      O32232   2.410   0.883   3.478
 6094WAT     H132233   2.359   0.841   3.409
 6094WAT     H232234   2.406   0.821   3.551
 6095WAT      O32235   5.074   1.060  10.925
 6095WAT     H132236   5.167   1.065  10.903
 6095WAT     H232237   5.065   0.978  10.973
 6096WAT      O32238   3.564   1.863   1.446
 6096WAT     H132239   3.531   1.786   1.399
 6096WAT     H232240   3.494   1.928   1.438
 6097WAT      O32241   4.121   2.113   7.759
 6097WAT     H132242   4.063   2.086   7.830
 6097WAT     H232243   4.166   2.190   7.793
 6098WAT      O32244   0.537   5.473  10.448
 6098WAT     H132245   0.526   5.379  10.433
 6098WAT     H232246   0.540   5.482  10.543
 6099WAT      O32247   0.921   3.078   9.152
 6099WAT     H132248   0.928   3.144   9.221
 6099WAT     H232249   1.003   3.028   9.158
 6100WAT      O32250   5.420   5.325   3.214
 6100WAT     H132251   5.368   5.405   3.219
 6100WAT     H232252   5.372   5.269   3.153
 6101WAT      O32253   4.773   5.433   1.126
 6101WAT     H132254   4.755   5.416   1.218
 6101WAT     H232255   4.697   5.483   1.096
 6102WAT      O32256   4.331   4.528   7.982
 6102WAT     H132257   4.274   4.603   7.993
 6102WAT     H232258   4.419   4.565   7.976
 6103WAT      O32259   2.883   5.497   2.774
 6103WAT     H132260   2.965   5.546   2.766
 6103WAT     H232261   2.833   5.543   2.840
 6104WAT      O32262   4.291   3.444   0.717
 6104WAT     H132263   4.294   3.495   0.798
 6104WAT     H232264   4.256   3.359   0.744
 6105WAT      O32265   4.547   2.180   2.718
 6105WAT     H132266   4.565   2.273   2.708
 6105WAT     H232267   4.527   2.169   2.811
 6106WAT      O32268   0.398   2.044  12.061
 6106WAT     H132269   0.387   1.949  12.050
 6106WAT     H232270   0.416   2.055  12.154
 6107WAT      O32271   2.985   5.500   7.732
 6107WAT     H132272   2.990   5.404   7.733
 6107WAT     H232273   2.930   5.520   7.656
 6108WAT      O32274   0.916   1.646   0.890
 6108WAT     H132275   0.973   1.702   0.838
 6108WAT     H232276   0.831   1.651   0.846
 6109WAT      O32277   6.061   4.994   2.820
 6109WAT     H132278   6.024   5.068   2.771
 6109WAT     H232279   6.136   4.967   2.768
 6110WAT      O32280   1.310   6.148   2.146
 6110WAT     H132281   1.367   6.189   2.081
 6110WAT     H232282   1.301   6.213   2.215
 6111WAT      O32283   4.818   4.633  11.836
 6111WAT     H132284   4.821   4.544  11.871
 6111WAT     H232285   4.801   4.688  11.913
 6112WAT      O32286   3.169   1.807   8.929
 6112WAT     H132287   3.199   1.886   8.884
 6112WAT     H232288   3.249   1.768   8.964
 6113WAT      O32289   0.209   1.397   9.156
 6113WAT     H132290   0.190   1.369   9.067
 6113WAT     H232291   0.191   1.319   9.210
 6114WAT      O32292   3.684   2.292   3.674
 6114WAT     H132293   3.693   2.226   3.742
 6114WAT     H232294   3.629   2.250   3.608
 6115WAT      O32295   5.152   2.398   8.307
 6115WAT     H132296   5.186   2.465   8.366
 6115WAT     H232297   5.062   2.384   8.336
 6116WAT      O32298   4.039   3.563  10.552
 6116WAT     H132299   4.086   3.485  10.523
 6116WAT     H232300   3.992   3.536  10.631
 6117WAT      O32301   6.030   1.895   3.069
 6117WAT     H132302   5.974   1.846   3.130
 6117WAT     H232303   5.985   1.888   2.985
 6118WAT      O32304   0.397   0.320   9.732
 6118WAT     H132305   0.400   0.383   9.804
 6118WAT     H232306   0.418   0.372   9.654
 6119WAT      O32307   5.355   3.641  10.518
 6119WAT     H132308   5.354   3.714  10.457
 6119WAT     H232309   5.419   3.580  10.482
 6120WAT      O32310   2.671   2.404   2.906
 6120WAT     H132311   2.660   2.316   2.870
 6120WAT     H232312   2.584   2.429   2.937
 6121WAT      O32313   0.876   1.069   4.116
 6121WAT     H132314   0.808   1.012   4.078
 6121WAT     H232315   0.834   1.155   4.121
 6122WAT      O32316   0.524   3.160  12.061
 6122WAT     H132317   0.460   3.232  12.062
 6122WAT     H232318   0.496   3.104  11.989
 6123WAT      O32319   4.122   1.610  10.813
 6123WAT     H132320   4.032   1.619  10.844
 6123WAT     H232321   4.165   1.558  10.881
 6124WAT      O32322   2.330   4.658   1.561
 6124WAT     H132323   2.338   4.566   1.586
 6124WAT     H232324   2.409   4.676   1.510
 6125WAT      O32325   5.222   2.843  10.891
 6125WAT     H132326   5.154   2.843  10.959
 6125WAT     H232327   5.229   2.751  10.865
 6126WAT      O32328   1.283   3.541   8.048
 6126WAT     H132329   1.194   3.515   8.025
 6126WAT     H232330   1.329   3.546   7.964
 6127WAT      O32331   0.216   5.078  10.747
 6127WAT     H132332   0.308   5.092  10.769
 6127WAT     H232333   0.169   5.097  10.828
 6128WAT      O32334   4.682   1.644   3.663
 6128WAT     H132335   4.614   1.635   3.730
 6128WAT     H232336   4.708   1.736   3.668
 6129WAT      O32337   5.208   1.184   4.069
 6129WAT     H132338   5.180   1.162   3.980
 6129WAT     H232339   5.300   1.208   4.060
 6130WAT      O32340   0.781   4.753  10.308
 6130WAT     H132341   0.808   4.797  10.388
 6130WAT     H232342   0.703   4.802  10.279
 6131WAT      O32343   0.077   5.058  10.991
 6131WAT     H132344   0.003   5.021  10.943
 6131WAT     H232345   0.065   5.028  11.081
 6132WAT      O32346   2.524   0.139   2.803
 6132WAT     H132347   2.436   0.114   2.829
 6132WAT     H232348   2.580   0.108   2.875
 6133WAT      O32349   3.558   5.002   0.158
 6133WAT     H132350   3.618   4.963   0.221
 6133WAT     H232351   3.586   5.093   0.151
 6134WAT      O32352   2.483   1.798   2.432
 6134WAT     H132353   2.389   1.785   2.446
 6134WAT     H232354   2.520   1.710   2.437
 6135WAT      O32355   0.595   4.997  11.407
 6135WAT     H132356   0.638   4.966  11.328
 6135WAT     H232357   0.665   4.998  11.473
 6136WAT      O32358   1.135   5.848  10.155
 6136WAT     H132359   1.150   5.943  10.161
 6136WAT     H232360   1.067   5.831  10.220
 6137WAT      O32361   4.042   3.057   2.522
 6137WAT     H132362   3.983   3.058   2.596
 6137WAT     H232363   3.989   3.023   2.449
 6138WAT      O32364   6.032   4.026  10.724
 6138WAT     H132365   5.981   4.107  10.735
 6138WAT     H232366   6.107   4.037  10.783
 6139WAT      O32367   2.394   5.754  12.279
 6139WAT     H132368   2.337   5.828  12.297
 6139WAT     H232369   2.338   5.677  12.285
 6140WAT      O32370   1.878   3.035   2.649
 6140WAT     H132371   1.893   3.128   2.670
 6140WAT     H232372   1.915   2.988   2.723
 6141WAT      O32373   5.515   5.639   0.645
 6141WAT     H132374   5.543   5.580   0.714
 6141WAT     H232375   5.527   5.590   0.564
 6142WAT      O32376   3.184   0.088   3.064
 6142WAT     H132377   3.164   0.127   3.149
 6142WAT     H232378   3.271   0.048   3.076
 6143WAT      O32379   6.171   3.791  12.358
 6143WAT     H132380   6.192   3.783  12.265
 6143WAT     H232381   6.256   3.799  12.401
 6144WAT      O32382   1.664   2.015   2.237
 6144WAT     H132383   1.608   2.069   2.180
 6144WAT     H232384   1.620   2.017   2.322
 6145WAT      O32385   1.712   3.777   4.163
 6145WAT     H132386   1.621   3.800   4.181
 6145WAT     H232387   1.714   3.682   4.170
 6146WAT      O32388   1.565   2.261   2.042
 6146WAT     H132389   1.530   2.350   2.037
 6146WAT     H232390   1.652   2.267   2.003
 6147WAT      O32391   5.054   3.862   8.659
 6147WAT     H132392   4.978   3.826   8.614
 6147WAT     H232393   5.056   3.954   8.632
 6148WAT      O32394   5.968   6.054  10.976
 6148WAT     H132395   5.952   6.053  11.071
 6148WAT     H232396   5.884   6.083  10.939
 6149WAT      O32397   5.332   2.829   1.703
 6149WAT     H132398   5.359   2.847   1.793
 6149WAT     H232399   5.298   2.913   1.671
 6150WAT      O32400   0.678   5.549  10.113
 6150WAT     H132401   0.670   5.456  10.133
 6150WAT     H232402   0.627   5.593  10.181
 6151WAT      O32403   1.469   1.697  12.228
 6151WAT     H132404   1.419   1.713  12.308
 6151WAT     H232405   1.484   1.603  12.227
 6152WAT      O32406   3.936   1.975   4.164
 6152WAT     H132407   3.930   2.062   4.202
 6152WAT     H232408   3.999   1.928   4.219
 6153WAT      O32409   5.816   3.534   8.784
 6153WAT     H132410   5.833   3.628   8.775
 6153WAT     H232411   5.721   3.526   8.776
 6154WAT      O32412   1.974   3.958   3.114
 6154WAT     H132413   1.944   4.010   3.040
 6154WAT     H232414   1.916   3.983   3.186
 6155WAT      O32415   1.161   4.896   9.288
 6155WAT     H132416   1.144   4.802   9.295
 6155WAT     H232417   1.233   4.912   9.350
 6156WAT      O32418   0.554   2.265  11.171
 6156WAT     H132419   0.566   2.185  11.223
 6156WAT     H232420   0.463   2.290  11.189
 6157WAT      O32421   4.674   1.379   3.575
 6157WAT     H132422   4.671   1.467   3.612
 6157WAT     H232423   4.757   1.342   3.605
 6158WAT      O32424   2.026   3.715   3.945
 6158WAT     H132425   2.039   3.677   4.032
 6158WAT     H232426   1.962   3.785   3.960
 6159WAT      O32427   2.980   3.347   8.904
 6159WAT     H132428   3.029   3.275   8.945
 6159WAT     H232429   3.030   3.425   8.927
 6160WAT      O32430   3.454   3.087  10.723
 6160WAT     H132431   3.361   3.101  10.708
 6160WAT     H232432   3.463   2.992  10.729
 6161WAT      O32433   4.184   2.660   1.039
 6161WAT     H132434   4.202   2.741   1.086
 6161WAT     H232435   4.227   2.592   1.092
 6162WAT      O32436   2.689   2.350   1.578
 6162WAT     H132437   2.737   2.333   1.659
 6162WAT     H232438   2.635   2.272   1.565
 6163WAT      O32439   5.295   3.246   1.989
 6163WAT     H132440   5.273   3.281   2.076
 6163WAT     H232441   5.293   3.322   1.931
 6164WAT      O32442   0.019   1.919   0.124
 6164WAT     H132443  -0.059   1.879   0.085
 6164WAT     H232444   0.092   1.870   0.087
 6165WAT      O32445   4.971   2.558   0.497
 6165WAT     H132446   5.008   2.546   0.410
 6165WAT     H232447   5.038   2.523   0.556
 6166WAT      O32448   5.130   4.342   1.948
 6166WAT     H132449   5.042   4.315   1.922
 6166WAT     H232450   5.176   4.355   1.866
 6167WAT      O32451   4.474   2.473  11.727
 6167WAT     H132452   4.527   2.543  11.766
 6167WAT     H232453   4.407   2.519  11.676
 6168WAT      O32454   0.591   5.727   3.301
 6168WAT     H132455   0.582   5.780   3.222
 6168WAT     H232456   0.682   5.737   3.328
 6169WAT      O32457   1.839   5.517  11.804
 6169WAT     H132458   1.900   5.587  11.828
 6169WAT     H232459   1.877   5.439  11.844
 6170WAT      O32460   4.237   5.103  10.645
 6170WAT     H132461   4.277   5.094  10.559
 6170WAT     H232462   4.145   5.120  10.627
 6171WAT      O32463   0.616   4.010  10.021
 6171WAT     H132464   0.563   4.010   9.942
 6171WAT     H232465   0.688   3.951  10.001
 6172WAT      O32466   2.068   6.018   3.548
 6172WAT     H132467   1.982   6.041   3.581
 6172WAT     H232468   2.117   5.988   3.625
 6173WAT      O32469   0.400   5.807   3.872
 6173WAT     H132470   0.402   5.719   3.834
 6173WAT     H232471   0.321   5.809   3.925
 6174WAT      O32472   3.568   3.515   3.091
 6174WAT     H132473   3.533   3.426   3.093
 6174WAT     H232474   3.590   3.534   3.182
 6175WAT      O32475   0.645   2.518   3.623
 6175WAT     H132476   0.637   2.604   3.662
 6175WAT     H232477   0.567   2.471   3.652
 6176WAT      O32478   5.060   5.050   3.682
 6176WAT     H132479   5.153   5.053   3.705
 6176WAT     H232480   5.018   5.108   3.745
 6177WAT      O32481   5.349   0.611   0.012
 6177WAT     H132482   5.331   0.600   0.105
 6177WAT     H232483   5.395   0.694   0.005
 6178WAT      O32484   1.611   0.320  10.312
 6178WAT     H132485   1.696   0.280  10.292
 6178WAT     H232486   1.633   0.403  10.354
 6179WAT      O32487  -0.015   0.971  12.552
 6179WAT     H132488  -0.030   1.065  12.545
 6179WAT     H232489   0.079   0.962  12.563
 6180WAT      O32490   2.186   4.555   4.723
 6180WAT     H132491   2.277   4.585   4.717
 6180WAT     H232492   2.193   4.464   4.749
 6181WAT      O32493   5.071   1.546  10.268
 6181WAT     H132494   5.002   1.573  10.329
 6181WAT     H232495   5.135   1.618  10.272
 6182WAT      O32496   0.167   1.741   2.981
 6182WAT     H132497   0.221   1.699   3.048
 6182WAT     H232498   0.137   1.669   2.925
 6183WAT      O32499   6.242   5.208   1.548
 6183WAT     H132500   6.287   5.275   1.497
 6183WAT     H232501   6.149   5.224   1.532
 6184WAT      O32502   5.945   5.285   0.977
 6184WAT     H132503   5.904   5.220   0.921
 6184WAT     H232504   5.956   5.362   0.921
 6185WAT      O32505   5.061   4.076   9.821
 6185WAT     H132506   5.129   4.040   9.879
 6185WAT     H232507   5.004   4.126   9.879
 6186WAT      O32508   1.781   4.033  12.696
 6186WAT     H132509   1.823   4.040  12.610
 6186WAT     H232510   1.736   3.948  12.693
 6187WAT      O32511   2.713   2.541   1.136
 6187WAT     H132512   2.785   2.491   1.097
 6187WAT     H232513   2.744   2.562   1.224
 6188WAT      O32514   3.152   0.885   0.828
 6188WAT     H132515   3.217   0.878   0.758
 6188WAT     H232516   3.081   0.936   0.789
 6189WAT      O32517   0.511   0.129   1.702
 6189WAT     H132518   0.424   0.157   1.729
 6189WAT     H232519   0.533   0.056   1.760
 6190WAT      O32520   5.310   3.413  11.567
 6190WAT     H132521   5.325   3.465  11.488
 6190WAT     H232522   5.397   3.397  11.603
 6191WAT      O32523   2.116   5.635   1.558
 6191WAT     H132524   2.163   5.718   1.566
 6191WAT     H232525   2.095   5.627   1.464
 6192WAT      O32526   6.072   3.198  10.953
 6192WAT     H132527   6.097   3.132  10.888
 6192WAT     H232528   6.127   3.274  10.932
 6193WAT      O32529   5.157   3.373  10.214
 6193WAT     H132530   5.148   3.294  10.160
 6193WAT     H232531   5.074   3.419  10.204
 6194WAT      O32532   3.017   0.827  12.149
 6194WAT     H132533   2.998   0.736  12.124
 6194WAT     H232534   3.040   0.822  12.242
 6195WAT      O32535   3.899   2.098  10.283
 6195WAT     H132536   3.896   2.003  10.272
 6195WAT     H232537   3.859   2.114  10.369
 6196WAT      O32538   1.215   4.625   9.059
 6196WAT     H132539   1.285   4.682   9.091
 6196WAT     H232540   1.136   4.679   9.065
 6197WAT      O32541   4.221   4.359  12.256
 6197WAT     H132542   4.269   4.339  12.337
 6197WAT     H232543   4.224   4.454  12.248
 6198WAT      O32544   1.451   5.595   3.713
 6198WAT     H132545   1.446   5.594   3.809
 6198WAT     H232546   1.432   5.685   3.688
 6199WAT      O32547   3.584   3.391   0.257
 6199WAT     H132548   3.606   3.302   0.283
 6199WAT     H232549   3.548   3.383   0.169
 6200WAT      O32550   4.527   2.614   1.607
 6200WAT     H132551   4.524   2.707   1.629
 6200WAT     H232552   4.570   2.610   1.522
 6201WAT      O32553   1.132   5.981   8.343
 6201WAT     H132554   1.102   5.890   8.340
 6201WAT     H232555   1.181   5.993   8.261
 6202WAT      O32556   3.161   4.645   2.659
 6202WAT     H132557   3.219   4.722   2.655
 6202WAT     H232558   3.077   4.680   2.689
 6203WAT      O32559   4.854   1.980   3.413
 6203WAT     H132560   4.865   1.890   3.445
 6203WAT     H232561   4.791   2.019   3.474
 6204WAT      O32562   1.375   0.214   1.659
 6204WAT     H132563   1.393   0.293   1.709
 6204WAT     H232564   1.354   0.246   1.571
 6205WAT      O32565   5.164   3.113   8.916
 6205WAT     H132566   5.155   3.160   8.833
 6205WAT     H232567   5.075   3.112   8.953
 6206WAT      O32568   4.996   1.951   3.805
 6206WAT     H132569   5.012   1.968   3.712
 6206WAT     H232570   5.079   1.917   3.837
 6207WAT      O32571   3.154   6.202  11.150
 6207WAT     H132572   3.066   6.165  11.152
 6207WAT     H232573   3.167   6.238  11.238
 6208WAT      O32574   5.256   1.706  11.991
 6208WAT     H132575   5.345   1.740  11.993
 6208WAT     H232576   5.259   1.629  12.047
 6209WAT      O32577   6.192   6.130   7.475
 6209WAT     H132578   6.213   6.198   7.538
 6209WAT     H232579   6.104   6.101   7.499
 6210WAT      O32580   2.938   3.360   3.574
 6210WAT     H132581   2.888   3.434   3.607
 6210WAT     H232582   2.873   3.303   3.534
 6211WAT      O32583   4.895   0.092   1.926
 6211WAT     H132584   4.952   0.140   1.985
 6211WAT     H232585   4.954   0.036   1.875
 6212WAT      O32586   4.385   3.583   9.952
 6212WAT     H132587   4.290   3.580   9.961
 6212WAT     H232588   4.413   3.492   9.963
 6213WAT      O32589   2.150   4.558   2.132
 6213WAT     H132590   2.224   4.511   2.172
 6213WAT     H232591   2.077   4.496   2.136
 6214WAT      O32592   3.792   5.717  12.433
 6214WAT     H132593   3.816   5.632  12.469
 6214WAT     H232594   3.697   5.721  12.442
 6215WAT      O32595   5.954   2.169   9.256
 6215WAT     H132596   5.889   2.220   9.206
 6215WAT     H232597   6.017   2.140   9.190
 6216WAT      O32598   5.740   3.229   8.182
 6216WAT     H132599   5.681   3.155   8.179
 6216WAT     H232600   5.714   3.284   8.108
 6217WAT      O32601   1.730   2.723  10.670
 6217WAT     H132602   1.806   2.711  10.727
 6217WAT     H232603   1.709   2.636  10.638
 6218WAT      O32604   1.591   2.273   3.857
 6218WAT     H132605   1.578   2.206   3.924
 6218WAT     H232606   1.508   2.277   3.810
 6219WAT      O32607   1.074   1.686   0.043
 6219WAT     H132608   1.018   1.623   0.089
 6219WAT     H232609   1.089   1.646  -0.043
 6220WAT      O32610   6.197   0.707   1.807
 6220WAT     H132611   6.188   0.659   1.725
 6220WAT     H232612   6.164   0.795   1.787
 6221WAT      O32613   5.929   2.378  10.501
 6221WAT     H132614   5.868   2.426  10.444
 6221WAT     H232615   5.979   2.447  10.545
 6222WAT      O32616   2.588   0.885  11.352
 6222WAT     H132617   2.637   0.957  11.392
 6222WAT     H232618   2.629   0.806  11.387
 6223WAT      O32619   4.997   4.941   4.381
 6223WAT     H132620   5.068   4.892   4.340
 6223WAT     H232621   5.016   4.939   4.474
 6224WAT      O32622   3.575   5.557   2.045
 6224WAT     H132623   3.636   5.547   2.118
 6224WAT     H232624   3.527   5.474   2.041
 6225WAT      O32625   5.088   4.742  12.466
 6225WAT     H132626   5.127   4.802  12.530
 6225WAT     H232627   4.994   4.753  12.478
 6226WAT      O32628   0.829   4.688  11.861
 6226WAT     H132629   0.872   4.603  11.853
 6226WAT     H232630   0.869   4.728  11.939
 6227WAT      O32631   0.831   0.094  11.318
 6227WAT     H132632   0.873   0.021  11.273
 6227WAT     H232633   0.890   0.168  11.305
 6228WAT      O32634   5.232   5.950   1.399
 6228WAT     H132635   5.159   5.942   1.460
 6228WAT     H232636   5.191   5.969   1.315
 6229WAT      O32637   5.855   1.297   1.278
 6229WAT     H132638   5.949   1.284   1.264
 6229WAT     H232639   5.847   1.320   1.370
 6230WAT      O32640   3.764   1.829  10.983
 6230WAT     H132641   3.757   1.740  10.950
 6230WAT     H232642   3.782   1.819  11.076
 6231WAT      O32643   4.635   2.178  10.360
 6231WAT     H132644   4.680   2.094  10.362
 6231WAT     H232645   4.637   2.209  10.451
 6232WAT      O32646   0.482   5.290  10.145
 6232WAT     H132647   0.551   5.262  10.205
 6232WAT     H232648   0.412   5.320  10.203
 6233WAT      O32649   3.247   2.575   3.010
 6233WAT     H132650   3.235   2.667   3.037
 6233WAT     H232651   3.252   2.579   2.914
 6234WAT      O32652   0.313   2.098   4.676
 6234WAT     H132653   0.336   2.031   4.612
 6234WAT     H232654   0.285   2.049   4.754
 6235WAT      O32655   0.755   4.520   9.126
 6235WAT     H132656   0.835   4.537   9.075
 6235WAT     H232657   0.736   4.427   9.109
 6236WAT      O32658   2.525   6.056   1.927
 6236WAT     H132659   2.488   5.984   1.978
 6236WAT     H232660   2.450   6.099   1.886
 6237WAT      O32661   0.653   0.915   4.015
 6237WAT     H132662   0.611   1.001   4.022
 6237WAT     H232663   0.622   0.881   3.931
 6238WAT      O32664   6.088   1.465   3.863
 6238WAT     H132665   6.055   1.404   3.798
 6238WAT     H232666   6.055   1.431   3.946
 6239WAT      O32667   4.166   2.541   0.103
 6239WAT     H132668   4.173   2.628   0.063
 6239WAT     H232669   4.178   2.480   0.030
 6240WAT      O32670   0.526   0.328   0.145
 6240WAT     H132671   0.441   0.295   0.173
 6240WAT     H232672   0.555   0.385   0.216
 6241WAT      O32673   5.051   5.470  12.416
 6241WAT     H132674   5.099   5.466  12.333
 6241WAT     H232675   5.120   5.463  12.483
 6242WAT      O32676   0.893   5.749   9.422
 6242WAT     H132677   0.878   5.834   9.463
 6242WAT     H232678   0.824   5.693   9.457
 6243WAT      O32679   1.379   5.234   4.662
 6243WAT     H132680   1.319   5.303   4.690
 6243WAT     H232681   1.343   5.154   4.701
 6244WAT      O32682   1.458   5.444   2.232
 6244WAT     H132683   1.404   5.395   2.170
 6244WAT     H232684   1.415   5.528   2.241
 6245WAT      O32685   2.824   5.562   8.888
 6245WAT     H132686   2.799   5.470   8.883
 6245WAT     H232687   2.904   5.563   8.941
 6246WAT      O32688   2.299   5.859   9.671
 6246WAT     H132689   2.211   5.870   9.634
 6246WAT     H232690   2.327   5.948   9.693
 6247WAT      O32691   3.347   5.082   9.999
 6247WAT     H132692   3.271   5.137  10.016
 6247WAT     H232693   3.319   4.993  10.021
 6248WAT      O32694   4.733   4.872   1.438
 6248WAT     H132695   4.798   4.941   1.421
 6248WAT     H232696   4.768   4.795   1.393
 6249WAT      O32697   0.519   2.705   4.174
 6249WAT     H132698   0.607   2.708   4.137
 6249WAT     H232699   0.518   2.776   4.239
 6250WAT      O32700   2.456   5.730   1.742
 6250WAT     H132701   2.480   5.794   1.674
 6250WAT     H232702   2.378   5.767   1.783
 6251WAT      O32703   5.102   5.524   8.642
 6251WAT     H132704   5.190   5.524   8.603
 6251WAT     H232705   5.117   5.542   8.735
 6252WAT      O32706   6.025   1.750  11.886
 6252WAT     H132707   6.038   1.831  11.837
 6252WAT     H232708   5.969   1.774  11.959
 6253WAT      O32709   4.169   2.309   8.720
 6253WAT     H132710   4.167   2.402   8.697
 6253WAT     H232711   4.237   2.302   8.786
 6254WAT      O32712   4.908   3.240   8.663
 6254WAT     H132713   4.998   3.216   8.639
 6254WAT     H232714   4.877   3.293   8.590
 6255WAT      O32715   0.376   0.013   4.755
 6255WAT     H132716   0.431  -0.011   4.680
 6255WAT     H232717   0.413   0.095   4.786
 6256WAT      O32718   3.364   3.767   9.871
 6256WAT     H132719   3.359   3.783   9.965
 6256WAT     H232720   3.371   3.672   9.863
 6257WAT      O32721   0.354   0.833  10.039
 6257WAT     H132722   0.368   0.914  10.088
 6257WAT     H232723   0.327   0.862   9.952
 6258WAT      O32724   5.229   0.843   3.778
 6258WAT     H132725   5.135   0.859   3.785
 6258WAT     H232726   5.266   0.881   3.857
 6259WAT      O32727   0.978   0.955   0.127
 6259WAT     H132728   0.985   1.049   0.144
 6259WAT     H232729   1.052   0.935   0.070
 6260WAT      O32730   1.995   1.438   9.177
 6260WAT     H132731   2.084   1.432   9.144
 6260WAT     H232732   1.963   1.347   9.176
 6261WAT      O32733   0.516   4.102   1.407
 6261WAT     H132734   0.530   4.007   1.402
 6261WAT     H232735   0.455   4.121   1.335
 6262WAT      O32736   0.024   3.230   1.749
 6262WAT     H132737   0.058   3.207   1.836
 6262WAT     H232738  -0.066   3.258   1.766
 6263WAT      O32739   3.382   4.873  11.815
 6263WAT     H132740   3.375   4.835  11.903
 6263WAT     H232741   3.373   4.967  11.829
 6264WAT      O32742   4.724   6.001  12.510
 6264WAT     H132743   4.696   5.990  12.419
 6264WAT     H232744   4.718   6.095  12.526
 6265WAT      O32745   5.934   2.776  11.250
 6265WAT     H132746   5.923   2.687  11.217
 6265WAT     H232747   5.932   2.831  11.172
 6266WAT      O32748   2.606   0.957  10.307
 6266WAT     H132749   2.526   0.962  10.360
 6266WAT     H232750   2.654   1.037  10.329
 6267WAT      O32751   3.563   5.814  10.023
 6267WAT     H132752   3.529   5.735  10.065
 6267WAT     H232753   3.598   5.866  10.095
 6268WAT      O32754   3.619   4.561   3.898
 6268WAT     H132755   3.539   4.521   3.865
 6268WAT     H232756   3.623   4.646   3.855
 6269WAT      O32757   5.432   1.016   1.482
 6269WAT     H132758   5.403   1.102   1.512
 6269WAT     H232759   5.362   0.956   1.508
 6270WAT      O32760   3.684   1.441   4.100
 6270WAT     H132761   3.670   1.358   4.054
 6270WAT     H232762   3.728   1.416   4.181
 6271WAT      O32763   5.721   1.122   2.060
 6271WAT     H132764   5.725   1.049   1.999
 6271WAT     H232765   5.812   1.147   2.074
 6272WAT      O32766   4.022   5.906   2.585
 6272WAT     H132767   4.060   5.989   2.556
 6272WAT     H232768   4.080   5.840   2.547
 6273WAT      O32769   5.627   3.151   0.481
 6273WAT     H132770   5.593   3.083   0.540
 6273WAT     H232771   5.718   3.163   0.509
 6274WAT      O32772   0.126   0.946   3.083
 6274WAT     H132773   0.218   0.951   3.059
 6274WAT     H232774   0.079   0.949   2.999
 6275WAT      O32775   1.303   4.762  11.338
 6275WAT     H132776   1.223   4.807  11.365
 6275WAT     H232777   1.352   4.828  11.288
 6276WAT      O32778   0.278   5.363   0.264
 6276WAT     H132779   0.194   5.361   0.310
 6276WAT     H232780   0.265   5.426   0.193
 6277WAT      O32781   1.920   4.525   4.684
 6277WAT     H132782   2.015   4.531   4.700
 6277WAT     H232783   1.913   4.485   4.597
 6278WAT      O32784   5.890   5.471   1.656
 6278WAT     H132785   5.858   5.557   1.685
 6278WAT     H232786   5.974   5.460   1.701
 6279WAT      O32787   3.067   3.891   2.246
 6279WAT     H132788   2.974   3.870   2.231
 6279WAT     H232789   3.069   3.927   2.335
 6280WAT      O32790   4.285   3.609   0.973
 6280WAT     H132791   4.361   3.667   0.971
 6280WAT     H232792   4.259   3.607   1.065
 6281WAT      O32793   0.582   5.694   3.562
 6281WAT     H132794   0.593   5.599   3.568
 6281WAT     H232795   0.595   5.713   3.469
 6282WAT      O32796   5.552   2.495   9.450
 6282WAT     H132797   5.596   2.538   9.376
 6282WAT     H232798   5.538   2.565   9.513
 6283WAT      O32799   3.322   5.030   1.875
 6283WAT     H132800   3.360   4.981   1.801
 6283WAT     H232801   3.264   5.094   1.833
 6284WAT      O32802   5.574   4.530   3.565
 6284WAT     H132803   5.531   4.612   3.589
 6284WAT     H232804   5.550   4.469   3.635
 6285WAT      O32805   1.861   5.898   1.578
 6285WAT     H132806   1.901   5.814   1.603
 6285WAT     H232807   1.804   5.876   1.505
 6286WAT      O32808   5.642   0.027   9.678
 6286WAT     H132809   5.624   0.064   9.764
 6286WAT     H232810   5.651  -0.067   9.693
 6287WAT      O32811   0.962   3.965  12.291
 6287WAT     H132812   0.918   3.981  12.375
 6287WAT     H232813   1.015   3.887  12.306
 6288WAT      O32814   4.828   4.065   1.446
 6288WAT     H132815   4.862   4.137   1.499
 6288WAT     H232816   4.782   4.108   1.374
 6289WAT      O32817   4.520   2.772  10.096
 6289WAT     H132818   4.455   2.786  10.164
 6289WAT     H232819   4.475   2.716  10.031
 6290WAT      O32820   3.673   0.737   3.870
 6290WAT     H132821   3.707   0.705   3.953
 6290WAT     H232822   3.719   0.686   3.803
 6291WAT      O32823   5.034   4.653   0.461
 6291WAT     H132824   5.056   4.682   0.549
 6291WAT     H232825   5.056   4.728   0.405
 6292WAT      O32826   0.503   1.055  12.655
 6292WAT     H132827   0.575   1.006  12.616
 6292WAT     H232828   0.518   1.049  12.749
 6293WAT      O32829   3.047   2.128   4.445
 6293WAT     H132830   3.029   2.111   4.352
 6293WAT     H232831   2.995   2.063   4.492
 6294WAT      O32832   4.438   3.842   0.997
 6294WAT     H132833   4.370   3.909   1.010
 6294WAT     H232834   4.507   3.888   0.949
 6295WAT      O32835   1.535   2.116  10.432
 6295WAT     H132836   1.464   2.179  10.449
 6295WAT     H232837   1.522   2.047  10.496
 6296WAT      O32838   4.103   3.609  12.187
 6296WAT     H132839   4.190   3.606  12.147
 6296WAT     H232840   4.106   3.686  12.244
 6297WAT      O32841   5.403   4.434   2.355
 6297WAT     H132842   5.496   4.415   2.367
 6297WAT     H232843   5.399   4.474   2.268
 6298WAT      O32844   3.147   2.997   3.792
 6298WAT     H132845   3.205   3.043   3.852
 6298WAT     H232846   3.066   3.049   3.792
 6299WAT      O32847   1.758   3.295   0.524
 6299WAT     H132848   1.829   3.287   0.588
 6299WAT     H232849   1.715   3.377   0.545
 6300WAT      O32850   2.810   1.254   2.859
 6300WAT     H132851   2.723   1.279   2.830
 6300WAT     H232852   2.801   1.239   2.953
 6301WAT      O32853   4.088   0.261  11.867
 6301WAT     H132854   4.099   0.314  11.946
 6301WAT     H232855   4.054   0.322  11.801
 6302WAT      O32856   4.425   0.219  12.263
 6302WAT     H132857   4.414   0.163  12.341
 6302WAT     H232858   4.495   0.279  12.287
 6303WAT      O32859   0.050   3.669   1.795
 6303WAT     H132860   0.137   3.704   1.775
 6303WAT     H232861   0.062   3.617   1.874
 6304WAT      O32862   5.433   5.335   2.083
 6304WAT     H132863   5.415   5.241   2.088
 6304WAT     H232864   5.391   5.372   2.160
 6305WAT      O32865   1.099   5.190   2.838
 6305WAT     H132866   1.160   5.191   2.765
 6305WAT     H232867   1.116   5.106   2.882
 6306WAT      O32868   2.522   3.533  11.374
 6306WAT     H132869   2.596   3.587  11.400
 6306WAT     H232870   2.528   3.455  11.429
 6307WAT      O32871   1.208   0.943  11.855
 6307WAT     H132872   1.117   0.973  11.847
 6307WAT     H232873   1.220   0.882  11.783
 6308WAT      O32874   1.687   3.426  10.542
 6308WAT     H132875   1.594   3.424  10.564
 6308WAT     H232876   1.713   3.335  10.541
 6309WAT      O32877   5.427   2.772  11.758
 6309WAT     H132878   5.387   2.800  11.840
 6309WAT     H232879   5.427   2.851  11.703
 6310WAT      O32880   2.067   5.958   0.344
 6310WAT     H132881   2.009   5.883   0.353
 6310WAT     H232882   2.095   5.978   0.434
 6311WAT      O32883   4.114   5.811  11.324
 6311WAT     H132884   4.184   5.852  11.273
 6311WAT     H232885   4.145   5.721  11.340
 6312WAT      O32886   2.082   2.478  10.529
 6312WAT     H132887   2.073   2.558  10.477
 6312WAT     H232888   1.994   2.462  10.562
 6313WAT      O32889   6.132   5.632   8.112
 6313WAT     H132890   6.107   5.567   8.046
 6313WAT     H232891   6.227   5.639   8.104
 6314WAT      O32892   5.104   5.970  12.076
 6314WAT     H132893   5.183   5.923  12.047
 6314WAT     H232894   5.074   6.017  11.999
 6315WAT      O32895   1.593   6.126  11.967
 6315WAT     H132896   1.593   6.128  11.871
 6315WAT     H232897   1.633   6.210  11.992
 6316WAT      O32898   0.796   2.466  10.918
 6316WAT     H132899   0.711   2.507  10.899
 6316WAT     H232900   0.848   2.482  10.839
 6317WAT      O32901   3.460   5.274   8.961
 6317WAT     H132902   3.513   5.201   8.992
 6317WAT     H232903   3.448   5.257   8.867
 6318WAT      O32904   3.525   3.542  12.431
 6318WAT     H132905   3.466   3.603  12.388
 6318WAT     H232906   3.612   3.577  12.415
 6319WAT      O32907   2.516   2.137   1.605
 6319WAT     H132908   2.480   2.082   1.675
 6319WAT     H232909   2.488   2.095   1.524
 6320WAT      O32910   5.825   0.478   9.993
 6320WAT     H132911   5.852   0.453  10.081
 6320WAT     H232912   5.841   0.400   9.940
 6321WAT      O32913   2.047   3.266   3.575
 6321WAT     H132914   1.984   3.205   3.614
 6321WAT     H232915   2.099   3.298   3.649
 6322WAT      O32916   3.613   5.320  10.856
 6322WAT     H132917   3.536   5.275  10.821
 6322WAT     H232918   3.608   5.409  10.821
 6323WAT      O32919   4.161   0.041   3.020
 6323WAT     H132920   4.227  -0.026   3.038
 6323WAT     H232921   4.127   0.065   3.106
 6324WAT      O32922   5.866   5.113  10.750
 6324WAT     H132923   5.933   5.180  10.735
 6324WAT     H232924   5.914   5.042  10.794
 6325WAT      O32925   0.550   2.686   0.223
 6325WAT     H132926   0.540   2.615   0.160
 6325WAT     H232927   0.503   2.657   0.301
 6326WAT      O32928   3.230   2.913   1.992
 6326WAT     H132929   3.245   2.855   1.917
 6326WAT     H232930   3.185   2.989   1.955
 6327WAT      O32931   3.928   4.603  12.243
 6327WAT     H132932   4.003   4.555  12.208
 6327WAT     H232933   3.963   4.652  12.316
 6328WAT      O32934   1.419   4.685   0.596
 6328WAT     H132935   1.472   4.748   0.547
 6328WAT     H232936   1.360   4.647   0.531
 6329WAT      O32937   3.445   1.072  11.596
 6329WAT     H132938   3.498   1.144  11.563
 6329WAT     H232939   3.485   1.048  11.679
 6330WAT      O32940   5.731   1.490   7.562
 6330WAT     H132941   5.778   1.510   7.481
 6330WAT     H232942   5.797   1.448   7.617
 6331WAT      O32943   0.131   1.966   0.528
 6331WAT     H132944   0.122   2.023   0.605
 6331WAT     H232945   0.055   1.987   0.474
 6332WAT      O32946   4.819   2.032   2.770
 6332WAT     H132947   4.785   2.120   2.754
 6332WAT     H232948   4.765   1.998   2.842
 6333WAT      O32949   3.206   1.404   3.515
 6333WAT     H132950   3.193   1.351   3.594
 6333WAT     H232951   3.129   1.461   3.511
 6334WAT      O32952   1.082   4.169   2.575
 6334WAT     H132953   1.032   4.092   2.602
 6334WAT     H232954   1.021   4.218   2.520
 6335WAT      O32955   0.142   4.404   1.278
 6335WAT     H132956   0.152   4.474   1.342
 6335WAT     H232957   0.108   4.447   1.199
 6336WAT      O32958   2.846   5.362   8.257
 6336WAT     H132959   2.925   5.317   8.228
 6336WAT     H232960   2.826   5.423   8.186
 6337WAT      O32961   1.337   1.634   3.764
 6337WAT     H132962   1.400   1.648   3.694
 6337WAT     H232963   1.257   1.605   3.720
 6338WAT      O32964   3.366   0.542   1.953
 6338WAT     H132965   3.289   0.504   1.910
 6338WAT     H232966   3.349   0.531   2.047
 6339WAT      O32967   4.065   1.019  10.585
 6339WAT     H132968   4.155   0.988  10.573
 6339WAT     H232969   4.053   1.086  10.518
 6340WAT      O32970   1.285   0.885  11.139
 6340WAT     H132971   1.306   0.845  11.224
 6340WAT     H232972   1.190   0.883  11.134
 6341WAT      O32973   5.900   1.085   0.562
 6341WAT     H132974   5.924   1.091   0.469
 6341WAT     H232975   5.866   1.172   0.583
 6342WAT      O32976   4.555   1.085   8.635
 6342WAT     H132977   4.604   1.031   8.698
 6342WAT     H232978   4.469   1.095   8.675
 6343WAT      O32979   3.271   5.202   9.531
 6343WAT     H132980   3.262   5.201   9.436
 6343WAT     H232981   3.351   5.152   9.548
 6344WAT      O32982   0.425   5.278   3.428
 6344WAT     H132983   0.489   5.245   3.364
 6344WAT     H232984   0.426   5.373   3.416
 6345WAT      O32985   4.695   1.909  12.328
 6345WAT     H132986   4.640   1.908  12.250
 6345WAT     H232987   4.730   1.998  12.333
 6346WAT      O32988   4.425   2.262   2.374
 6346WAT     H132989   4.511   2.282   2.410
 6346WAT     H232990   4.441   2.229   2.286
 6347WAT      O32991   5.500   4.562   8.178
 6347WAT     H132992   5.415   4.596   8.150
 6347WAT     H232993   5.483   4.470   8.200
 6348WAT      O32994   0.983   0.507  12.107
 6348WAT     H132995   0.930   0.546  12.037
 6348WAT     H232996   1.011   0.423  12.071
 6349WAT      O32997   1.328   2.579   1.360
 6349WAT     H132998   1.305   2.616   1.275
 6349WAT     H232999   1.407   2.527   1.344
 6350WAT      O33000   4.377   4.028   3.041
 6350WAT     H133001   4.375   4.022   2.945
 6350WAT     H233002   4.308   4.091   3.062
 6351WAT      O33003   2.436   5.679   9.496
 6351WAT     H133004   2.385   5.721   9.566
 6351WAT     H233005   2.376   5.615   9.458
 6352WAT      O33006   1.508   0.880   9.978
 6352WAT     H133007   1.512   0.849   9.888
 6352WAT     H233008   1.450   0.957   9.974
 6353WAT      O33009   2.923   5.954  12.511
 6353WAT     H133010   2.986   5.908  12.456
 6353WAT     H233011   2.883   5.885  12.564
 6354WAT      O33012   5.072   5.281   7.715
 6354WAT     H133013   5.101   5.231   7.638
 6354WAT     H233014   5.048   5.366   7.680
 6355WAT      O33015   4.918   2.618  11.225
 6355WAT     H133016   4.887   2.601  11.314
 6355WAT     H233017   4.932   2.531  11.188
 6356WAT      O33018   4.143   2.229   8.460
 6356WAT     H133019   4.067   2.182   8.494
 6356WAT     H233020   4.187   2.263   8.538
 6357WAT      O33021   1.720   0.120  10.645
 6357WAT     H133022   1.677   0.132  10.729
 6357WAT     H233023   1.650   0.130  10.580
 6358WAT      O33024   1.753   3.053   4.146
 6358WAT     H133025   1.706   3.129   4.181
 6358WAT     H233026   1.708   2.977   4.182
 6359WAT      O33027   3.097   1.378   9.429
 6359WAT     H133028   3.179   1.382   9.478
 6359WAT     H233029   3.030   1.363   9.495
 6360WAT      O33030   2.230   0.802   8.433
 6360WAT     H133031   2.283   0.739   8.483
 6360WAT     H233032   2.187   0.749   8.366
 6361WAT      O33033   5.782   4.968   4.163
 6361WAT     H133034   5.862   5.018   4.180
 6361WAT     H233035   5.713   5.019   4.206
 6362WAT      O33036   4.069   2.387   8.229
 6362WAT     H133037   4.150   2.410   8.182
 6362WAT     H233038   4.100   2.344   8.309
 6363WAT      O33039   1.257   4.622   8.657
 6363WAT     H133040   1.229   4.602   8.568
 6363WAT     H233041   1.212   4.704   8.678
 6364WAT      O33042   4.952   3.740   1.915
 6364WAT     H133043   4.861   3.770   1.919
 6364WAT     H233044   4.967   3.722   1.822
 6365WAT      O33045   3.272   5.619   8.819
 6365WAT     H133046   3.282   5.525   8.811
 6365WAT     H233047   3.304   5.639   8.907
 6366WAT      O33048   4.696   0.307   0.143
 6366WAT     H133049   4.773   0.252   0.159
 6366WAT     H233050   4.679   0.297   0.049
 6367WAT      O33051   4.928   3.847   9.713
 6367WAT     H133052   4.999   3.892   9.759
 6367WAT     H233053   4.879   3.917   9.671
 6368WAT      O33054   2.092   4.113   4.165
 6368WAT     H133055   2.005   4.074   4.175
 6368WAT     H233056   2.152   4.047   4.201
 6369WAT      O33057   0.518   0.740  10.891
 6369WAT     H133058   0.577   0.732  10.816
 6369WAT     H233059   0.557   0.684  10.958
 6370WAT      O33060   5.788   0.747  11.973
 6370WAT     H133061   5.870   0.751  12.023
 6370WAT     H233062   5.776   0.835  11.938
 6371WAT      O33063   4.821   0.030   0.114
 6371WAT     H133064   4.892  -0.020   0.073
 6371WAT     H233065   4.814  -0.006   0.202
 6372WAT      O33066   2.038   5.983   3.851
 6372WAT     H133067   1.942   5.973   3.856
 6372WAT     H233068   2.055   6.069   3.889
 6373WAT      O33069   0.187   4.141   2.216
 6373WAT     H133070   0.148   4.223   2.248
 6373WAT     H233071   0.154   4.074   2.276
 6374WAT      O33072   0.646   3.109  12.619
 6374WAT     H133073   0.635   3.152  12.534
 6374WAT     H233074   0.670   3.019  12.598
 6375WAT      O33075   5.878   5.368  12.474
 6375WAT     H133076   5.855   5.458  12.499
 6375WAT     H233077   5.829   5.313  12.536
 6376WAT      O33078   4.067   5.982   8.744
 6376WAT     H133079   3.993   5.959   8.800
 6376WAT     H233080   4.108   6.056   8.787
 6377WAT      O33081   4.709   0.943   2.728
 6377WAT     H133082   4.676   1.023   2.687
 6377WAT     H233083   4.707   0.961   2.822
 6378WAT      O33084   1.774   3.253   9.029
 6378WAT     H133085   1.835   3.209   9.087
 6378WAT     H233086   1.688   3.218   9.054
 6379WAT      O33087   5.853   1.701  12.409
 6379WAT     H133088   5.874   1.791  12.386
 6379WAT     H233089   5.775   1.707  12.465
 6380WAT      O33090   0.264   3.449   1.198
 6380WAT     H133091   0.222   3.396   1.265
 6380WAT     H233092   0.334   3.394   1.164
 6381WAT      O33093   2.647   6.173  11.123
 6381WAT     H133094   2.644   6.243  11.058
 6381WAT     H233095   2.576   6.113  11.096
 6382WAT      O33096   2.584   2.775   7.974
 6382WAT     H133097   2.519   2.840   8.000
 6382WAT     H233098   2.632   2.816   7.902
 6383WAT      O33099   5.644   0.111   0.417
 6383WAT     H133100   5.611   0.200   0.399
 6383WAT     H233101   5.697   0.090   0.340
 6384WAT      O33102   0.722   1.920   3.170
 6384WAT     H133103   0.780   1.971   3.113
 6384WAT     H233104   0.651   1.980   3.191
 6385WAT      O33105   5.407   2.766   0.683
 6385WAT     H133106   5.427   2.732   0.770
 6385WAT     H233107   5.456   2.710   0.623
 6386WAT      O33108   3.610   0.111   8.957
 6386WAT     H133109   3.586   0.053   8.884
 6386WAT     H233110   3.701   0.088   8.976
 6387WAT      O33111   4.264   0.606   9.364
 6387WAT     H133112   4.325   0.546   9.322
 6387WAT     H233113   4.237   0.561   9.444
 6388WAT      O33114   2.004   4.223   0.131
 6388WAT     H133115   1.931   4.186   0.080
 6388WAT     H233116   2.044   4.147   0.173
 6389WAT      O33117   5.813   4.133   3.919
 6389WAT     H133118   5.725   4.154   3.948
 6389WAT     H233119   5.840   4.061   3.975
 6390WAT      O33120   1.133   3.211  12.471
 6390WAT     H133121   1.214   3.208  12.522
 6390WAT     H233122   1.146   3.147  12.401
 6391WAT      O33123   0.025   4.374   9.450
 6391WAT     H133124   0.072   4.426   9.385
 6391WAT     H233125   0.054   4.284   9.434
 6392WAT      O33126   0.642   6.047   5.457
 6392WAT     H133127   0.684   6.040   5.371
 6392WAT     H233128   0.708   6.089   5.512
 6393WAT      O33129   6.164   4.038   2.845
 6393WAT     H133130   6.096   4.072   2.903
 6393WAT     H233131   6.127   3.958   2.808
 6394WAT      O33132   5.618   1.958   0.672
 6394WAT     H133133   5.547   1.906   0.634
 6394WAT     H233134   5.697   1.928   0.626
 6395WAT      O33135   4.277   1.179   3.251
 6395WAT     H133136   4.265   1.085   3.266
 6395WAT     H233137   4.257   1.219   3.336
 6396WAT      O33138   5.717   5.112   1.270
 6396WAT     H133139   5.700   5.027   1.312
 6396WAT     H233140   5.642   5.166   1.294
 6397WAT      O33141   5.033   5.986   2.124
 6397WAT     H133142   5.091   5.969   2.199
 6397WAT     H233143   5.040   5.906   2.071
 6398WAT      O33144   5.082   0.852   1.934
 6398WAT     H133145   5.018   0.906   1.982
 6398WAT     H233146   5.166   0.876   1.971
 6399WAT      O33147   4.915   3.678   4.746
 6399WAT     H133148   4.863   3.597   4.743
 6399WAT     H233149   5.000   3.650   4.782
 6400WAT      O33150   0.016   3.912   9.017
 6400WAT     H133151  -0.040   3.903   8.940
 6400WAT     H233152   0.100   3.875   8.990
 6401WAT      O33153   0.908   2.073  10.250
 6401WAT     H133154   0.842   2.030  10.196
 6401WAT     H233155   0.908   2.164  10.220
 6402WAT      O33156   3.397   0.390   9.160
 6402WAT     H133157   3.454   0.417   9.088
 6402WAT     H233158   3.335   0.328   9.120
 6403WAT      O33159   3.738   4.993  10.823
 6403WAT     H133160   3.668   5.010  10.887
 6403WAT     H233161   3.816   5.031  10.863
 6404WAT      O33162   2.933   2.803  12.625
 6404WAT     H133163   2.961   2.712  12.630
 6404WAT     H233164   2.871   2.806  12.553
 6405WAT      O33165   4.716   0.769   0.424
 6405WAT     H133166   4.636   0.750   0.374
 6405WAT     H233167   4.690   0.840   0.483
 6406WAT      O33168   4.720   2.522   9.461
 6406WAT     H133169   4.731   2.605   9.415
 6406WAT     H233170   4.625   2.510   9.467
 6407WAT      O33171   1.354   5.121  12.400
 6407WAT     H133172   1.377   5.200  12.449
 6407WAT     H233173   1.343   5.053  12.467
 6408WAT      O33174   5.490   0.597   2.185
 6408WAT     H133175   5.576   0.634   2.206
 6408WAT     H233176   5.498   0.570   2.093
 6409WAT      O33177   5.375   5.436  12.220
 6409WAT     H133178   5.304   5.386  12.180
 6409WAT     H233179   5.341   5.526  12.225
 6410WAT      O33180   5.189   5.612   3.393
 6410WAT     H133181   5.171   5.530   3.439
 6410WAT     H233182   5.215   5.586   3.305
 6411WAT      O33183   3.697   1.825   1.707
 6411WAT     H133184   3.687   1.852   1.616
 6411WAT     H233185   3.725   1.904   1.753
 6412WAT      O33186   4.754   2.232   3.528
 6412WAT     H133187   4.693   2.261   3.461
 6412WAT     H233188   4.839   2.265   3.500
 6413WAT      O33189   2.982   5.564   3.152
 6413WAT     H133190   2.894   5.534   3.176
 6413WAT     H233191   3.033   5.483   3.142
 6414WAT      O33192   1.260   0.750   4.357
 6414WAT     H133193   1.168   0.741   4.383
 6414WAT     H233194   1.286   0.662   4.332
 6415WAT      O33195   4.375   1.873   3.448
 6415WAT     H133196   4.340   1.911   3.367
 6415WAT     H233197   4.440   1.810   3.418
 6416WAT      O33198   3.594   4.752   8.508
 6416WAT     H133199   3.663   4.818   8.496
 6416WAT     H233200   3.624   4.701   8.583
 6417WAT      O33201   2.545   3.569   9.782
 6417WAT     H133202   2.476   3.635   9.785
 6417WAT     H233203   2.610   3.605   9.722
 6418WAT      O33204   3.373   2.569  11.054
 6418WAT     H133205   3.344   2.627  10.984
 6418WAT     H233206   3.326   2.487  11.038
 6419WAT      O33207   2.330   5.753  11.772
 6419WAT     H133208   2.352   5.823  11.834
 6419WAT     H233209   2.303   5.680  11.827
 6420WAT      O33210   1.111   3.163   2.510
 6420WAT     H133211   1.198   3.182   2.546
 6420WAT     H233212   1.101   3.227   2.440
 6421WAT      O33213   2.714   3.195   3.494
 6421WAT     H133214   2.665   3.268   3.457
 6421WAT     H233215   2.670   3.175   3.576
 6422WAT      O33216   2.348   5.736  11.221
 6422WAT     H133217   2.288   5.697  11.284
 6422WAT     H233218   2.435   5.704  11.248
 6423WAT      O33219   1.047   5.013   3.435
 6423WAT     H133220   1.120   5.004   3.373
 6423WAT     H233221   1.028   5.106   3.436
 6424WAT      O33222   2.408   4.801   3.747
 6424WAT     H133223   2.421   4.877   3.690
 6424WAT     H233224   2.465   4.816   3.822
 6425WAT      O33225   3.579   2.956   1.393
 6425WAT     H133226   3.533   3.035   1.364
 6425WAT     H233227   3.647   2.943   1.327
 6426WAT      O33228   2.434   1.710   1.486
 6426WAT     H133229   2.465   1.681   1.572
 6426WAT     H233230   2.450   1.636   1.428
 6427WAT      O33231   1.817   1.881   2.050
 6427WAT     H133232   1.859   1.966   2.036
 6427WAT     H233233   1.741   1.901   2.105
 6428WAT      O33234   0.145   0.373   3.669
 6428WAT     H133235   0.219   0.322   3.637
 6428WAT     H233236   0.069   0.337   3.624
 6429WAT      O33237   0.653   2.848   3.292
 6429WAT     H133238   0.583   2.873   3.352
 6429WAT     H233239   0.661   2.753   3.304
 6430WAT      O33240   4.031   5.759   3.981
 6430WAT     H133241   3.957   5.738   3.924
 6430WAT     H233242   4.108   5.749   3.925
 6431WAT      O33243   0.434   3.820  10.171
 6431WAT     H133244   0.388   3.787  10.094
 6431WAT     H233245   0.521   3.844  10.139
 6432WAT      O33246   4.861   4.899  12.454
 6432WAT     H133247   4.853   4.957  12.530
 6432WAT     H233248   4.792   4.928  12.395
 6433WAT      O33249   5.731   0.068   2.299
 6433WAT     H133250   5.752  -0.021   2.330
 6433WAT     H233251   5.812   0.117   2.312
 6434WAT      O33252   3.889   2.603   2.499
 6434WAT     H133253   3.966   2.577   2.549
 6434WAT     H233254   3.903   2.566   2.412
 6435WAT      O33255   4.818   2.005   9.821
 6435WAT     H133256   4.903   2.025   9.782
 6435WAT     H233257   4.758   2.001   9.746
 6436WAT      O33258   2.404   5.539   3.269
 6436WAT     H133259   2.393   5.492   3.186
 6436WAT     H233260   2.466   5.609   3.249
 6437WAT      O33261   5.740   5.535  10.298
 6437WAT     H133262   5.673   5.507  10.360
 6437WAT     H233263   5.764   5.456  10.250
 6438WAT      O33264   0.166   5.145  10.255
 6438WAT     H133265   0.090   5.122  10.309
 6438WAT     H233266   0.151   5.101  10.172
 6439WAT      O33267   3.448   4.002  12.676
 6439WAT     H133268   3.385   3.942  12.636
 6439WAT     H233269   3.533   3.959  12.663
 6440WAT      O33270   1.600   2.520   1.025
 6440WAT     H133271   1.565   2.563   1.103
 6440WAT     H233272   1.543   2.445   1.012
 6441WAT      O33273   5.208   2.696   9.150
 6441WAT     H133274   5.212   2.740   9.065
 6441WAT     H233275   5.117   2.706   9.178
 6442WAT      O33276   1.957   1.475   3.057
 6442WAT     H133277   1.896   1.403   3.041
 6442WAT     H233278   1.921   1.521   3.132
 6443WAT      O33279   6.017   2.176   3.255
 6443WAT     H133280   6.033   2.217   3.340
 6443WAT     H233281   6.012   2.249   3.194
 6444WAT      O33282   5.559   2.892   3.736
 6444WAT     H133283   5.538   2.972   3.687
 6444WAT     H233284   5.504   2.896   3.814
 6445WAT      O33285   2.047   4.077   9.494
 6445WAT     H133286   2.085   4.002   9.449
 6445WAT     H233287   1.957   4.082   9.462
 6446WAT      O33288   3.132   3.366   2.945
 6446WAT     H133289   3.182   3.419   3.007
 6446WAT     H233290   3.175   3.381   2.860
 6447WAT      O33291   0.204   3.805  12.441
 6447WAT     H133292   0.231   3.872  12.379
 6447WAT     H233293   0.264   3.732  12.425
 6448WAT      O33294   5.913   3.841  11.930
 6448WAT     H133295   5.918   3.913  11.994
 6448WAT     H233296   5.992   3.850  11.877
 6449WAT      O33297   1.949   0.285  12.497
 6449WAT     H133298   1.866   0.326  12.471
 6449WAT     H233299   1.925   0.195  12.519
 6450WAT      O33300   3.614   4.695   0.408
 6450WAT     H133301   3.676   4.742   0.351
 6450WAT     H233302   3.660   4.685   0.491
 6451WAT      O33303   3.586   5.246   3.480
 6451WAT     H133304   3.563   5.212   3.566
 6451WAT     H233305   3.640   5.177   3.441
 6452WAT      O33306   5.506   3.397   2.500
 6452WAT     H133307   5.558   3.328   2.459
 6452WAT     H233308   5.516   3.473   2.442
 6453WAT      O33309   1.144   5.428   2.574
 6453WAT     H133310   1.165   5.521   2.582
 6453WAT     H233311   1.052   5.422   2.598
 6454WAT      O33312   5.979   0.588  12.288
 6454WAT     H133313   5.995   0.533  12.365
 6454WAT     H233314   5.889   0.569  12.263
 6455WAT      O33315   2.979   4.794   1.879
 6455WAT     H133316   3.013   4.883   1.886
 6455WAT     H233317   2.889   4.800   1.910
 6456WAT      O33318   4.873   4.315   1.836
 6456WAT     H133319   4.806   4.367   1.881
 6456WAT     H233320   4.828   4.234   1.811
 6457WAT      O33321   5.956   3.291  11.910
 6457WAT     H133322   5.881   3.332  11.955
 6457WAT     H233323   6.031   3.311  11.967
 6458WAT      O33324   2.925   4.569   0.927
 6458WAT     H133325   2.873   4.648   0.911
 6458WAT     H233326   2.937   4.566   1.022
 6459WAT      O33327   3.784   5.499  12.575
 6459WAT     H133328   3.735   5.542  12.646
 6459WAT     H233329   3.817   5.418  12.614
 6460WAT      O33330   2.954   3.042   1.833
 6460WAT     H133331   2.928   2.962   1.788
 6460WAT     H233332   2.880   3.102   1.821
 6461WAT      O33333   0.394   5.358  11.593
 6461WAT     H133334   0.433   5.442  11.618
 6461WAT     H233335   0.454   5.292  11.629
 6462WAT      O33336   5.957   3.803   8.411
 6462WAT     H133337   5.988   3.730   8.463
 6462WAT     H233338   5.953   3.877   8.472
 6463WAT      O33339   2.822   0.639  10.569
 6463WAT     H133340   2.914   0.665  10.578
 6463WAT     H233341   2.819   0.550  10.606
 6464WAT      O33342   5.922   0.304  12.582
 6464WAT     H133343   6.012   0.269  12.585
 6464WAT     H233344   5.886   0.267  12.501
 6465WAT      O33345   2.506   4.094  12.099
 6465WAT     H133346   2.471   4.131  12.018
 6465WAT     H233347   2.558   4.164  12.137
 6466WAT      O33348   2.697   1.176   2.281
 6466WAT     H133349   2.695   1.081   2.293
 6466WAT     H233350   2.607   1.204   2.299
 6467WAT      O33351   1.229   6.207   8.782
 6467WAT     H133352   1.228   6.159   8.865
 6467WAT     H233353   1.207   6.142   8.716
 6468WAT      O33354   4.969   5.585   2.619
 6468WAT     H133355   4.935   5.517   2.678
 6468WAT     H233356   5.064   5.583   2.633
 6469WAT      O33357   2.534   0.369   1.847
 6469WAT     H133358   2.581   0.286   1.854
 6469WAT     H233359   2.577   0.415   1.775
 6470WAT      O33360   4.140   0.284   2.180
 6470WAT     H133361   4.220   0.284   2.128
 6470WAT     H233362   4.169   0.313   2.267
 6471WAT      O33363   1.579   4.201   3.154
 6471WAT     H133364   1.562   4.263   3.082
 6471WAT     H233365   1.492   4.173   3.182
 6472WAT      O33366   0.233   4.238   4.141
 6472WAT     H133367   0.291   4.242   4.065
 6472WAT     H233368   0.145   4.243   4.105
 6473WAT      O33369   5.573   5.851   3.486
 6473WAT     H133370   5.528   5.770   3.508
 6473WAT     H233371   5.568   5.856   3.390
 6474WAT      O33372   6.043   5.636   0.004
 6474WAT     H133373   6.005   5.619   0.090
 6474WAT     H233374   6.106   5.565  -0.009
 6475WAT      O33375   3.922   5.758   0.868
 6475WAT     H133376   3.986   5.711   0.922
 6475WAT     H233377   3.837   5.733   0.905
 6476WAT      O33378   1.267   2.949   4.079
 6476WAT     H133379   1.291   2.892   4.152
 6476WAT     H233380   1.174   2.967   4.094
 6477WAT      O33381   5.067   0.174  11.923
 6477WAT     H133382   4.979   0.170  11.960
 6477WAT     H233383   5.097   0.083  11.923
 6478WAT      O33384   5.575   1.666  12.263
 6478WAT     H133385   5.579   1.762  12.257
 6478WAT     H233386   5.647   1.636  12.207
 6479WAT      O33387   0.338   4.714  10.727
 6479WAT     H133388   0.293   4.664  10.795
 6479WAT     H233389   0.306   4.678  10.645
 6480WAT      O33390   2.740   6.031   3.248
 6480WAT     H133391   2.774   5.975   3.318
 6480WAT     H233392   2.791   6.111   3.254
 6481WAT      O33393   0.642   3.256   2.616
 6481WAT     H133394   0.559   3.305   2.619
 6481WAT     H233395   0.708   3.323   2.601
 6482WAT      O33396   0.352   2.327  11.839
 6482WAT     H133397   0.320   2.245  11.801
 6482WAT     H233398   0.299   2.339  11.918
 6483WAT      O33399   0.012   4.483  10.444
 6483WAT     H133400   0.033   4.412  10.504
 6483WAT     H233401   0.015   4.444  10.357
 6484WAT      O33402   2.274   2.981   0.120
 6484WAT     H133403   2.310   3.055   0.070
 6484WAT     H233404   2.184   3.007   0.139
 6485WAT      O33405   4.779   1.834   2.564
 6485WAT     H133406   4.685   1.826   2.549
 6485WAT     H233407   4.787   1.901   2.632
 6486WAT      O33408   1.791   3.441   3.549
 6486WAT     H133409   1.809   3.454   3.456
 6486WAT     H233410   1.857   3.378   3.578
 6487WAT      O33411   6.137   0.000   0.947
 6487WAT     H133412   6.100   0.064   0.886
 6487WAT     H233413   6.070  -0.010   1.015
 6488WAT      O33414   5.988   0.742   0.180
 6488WAT     H133415   6.040   0.780   0.110
 6488WAT     H233416   6.045   0.744   0.257
 6489WAT      O33417   3.348   2.098   4.012
 6489WAT     H133418   3.276   2.038   4.032
 6489WAT     H233419   3.360   2.150   4.092
 6490WAT      O33420   0.382   4.783   8.502
 6490WAT     H133421   0.470   4.746   8.502
 6490WAT     H233422   0.396   4.878   8.494
 6491WAT      O33423   3.208   2.563   9.882
 6491WAT     H133424   3.255   2.505   9.822
 6491WAT     H233425   3.117   2.534   9.878
 6492WAT      O33426   3.715   2.739   3.494
 6492WAT     H133427   3.634   2.701   3.458
 6492WAT     H233428   3.690   2.768   3.581
 6493WAT      O33429   4.621   2.258  12.073
 6493WAT     H133430   4.597   2.348  12.096
 6493WAT     H233431   4.715   2.261  12.057
 6494WAT      O33432   3.106   1.470   3.836
 6494WAT     H133433   3.011   1.466   3.826
 6494WAT     H233434   3.134   1.379   3.831
 6495WAT      O33435   0.907   5.716   3.352
 6495WAT     H133436   0.926   5.689   3.262
 6495WAT     H233437   0.925   5.638   3.404
 6496WAT      O33438   0.040   4.918  11.257
 6496WAT     H133439   0.025   4.827  11.282
 6496WAT     H233440   0.078   4.958  11.335
 6497WAT      O33441   2.103   3.317   1.690
 6497WAT     H133442   2.081   3.232   1.653
 6497WAT     H233443   2.037   3.332   1.758
 6498WAT      O33444   5.978   5.247   0.432
 6498WAT     H133445   6.035   5.292   0.494
 6498WAT     H233446   6.022   5.163   0.416
 6499WAT      O33447   5.955   2.218  10.724
 6499WAT     H133448   5.969   2.293  10.782
 6499WAT     H233449   5.951   2.256  10.636
 6500WAT      O33450   6.273   3.971   2.343
 6500WAT     H133451   6.263   4.020   2.425
 6500WAT     H233452   6.184   3.942   2.323
 6501WAT      O33453   5.180   5.235   4.423
 6501WAT     H133454   5.216   5.316   4.459
 6501WAT     H233455   5.239   5.167   4.454
 6502WAT      O33456   0.246   3.091   2.466
 6502WAT     H133457   0.291   3.059   2.388
 6502WAT     H233458   0.261   3.024   2.532
 6503WAT      O33459   4.329   0.782   1.934
 6503WAT     H133460   4.282   0.865   1.928
 6503WAT     H233461   4.341   0.769   2.028
 6504WAT      O33462   1.435   2.983   2.480
 6504WAT     H133463   1.526   2.992   2.451
 6504WAT     H233464   1.385   2.977   2.399
 6505WAT      O33465   5.365   6.177  12.016
 6505WAT     H133466   5.405   6.125  11.946
 6505WAT     H233467   5.387   6.268  11.993
 6506WAT      O33468   0.412   1.036  11.422
 6506WAT     H133469   0.428   1.032  11.327
 6506WAT     H233470   0.456   0.958  11.457
 6507WAT      O33471   2.127   0.592   1.396
 6507WAT     H133472   2.098   0.510   1.357
 6507WAT     H233473   2.221   0.581   1.412
 6508WAT      O33474   2.630   4.312   9.718
 6508WAT     H133475   2.726   4.311   9.718
 6508WAT     H233476   2.606   4.294   9.809
 6509WAT      O33477   2.461   1.380  12.585
 6509WAT     H133478   2.385   1.369  12.529
 6509WAT     H233479   2.425   1.377  12.674
 6510WAT      O33480   4.003   0.126   9.715
 6510WAT     H133481   3.919   0.129   9.669
 6510WAT     H233482   3.981   0.146   9.806
 6511WAT      O33483   5.893   0.138  10.730
 6511WAT     H133484   5.857   0.050  10.720
 6511WAT     H233485   5.987   0.124  10.745
 6512WAT      O33486   0.863   0.721   1.418
 6512WAT     H133487   0.898   0.708   1.329
 6512WAT     H233488   0.777   0.760   1.404
 6513WAT      O33489   5.610   1.824   9.833
 6513WAT     H133490   5.574   1.827   9.921
 6513WAT     H233491   5.576   1.902   9.790
 6514WAT      O33492   3.230   6.066   0.909
 6514WAT     H133493   3.262   6.152   0.938
 6514WAT     H233494   3.271   6.004   0.970
 6515WAT      O33495   3.539   4.699   2.808
 6515WAT     H133496   3.513   4.735   2.723
 6515WAT     H233497   3.527   4.771   2.869
 6516WAT      O33498   4.909   1.451  11.106
 6516WAT     H133499   4.871   1.537  11.125
 6516WAT     H233500   5.003   1.464  11.110
 6517WAT      O33501   1.698   5.888   3.120
 6517WAT     H133502   1.710   5.974   3.162
 6517WAT     H233503   1.781   5.843   3.134
 6518WAT      O33504   3.878   6.072   9.780
 6518WAT     H133505   3.796   6.116   9.755
 6518WAT     H233506   3.938   6.094   9.709
 6519WAT      O33507   5.272   5.134  11.085
 6519WAT     H133508   5.253   5.044  11.112
 6519WAT     H233509   5.364   5.147  11.106
 6520WAT      O33510   3.808   1.222  10.809
 6520WAT     H133511   3.836   1.144  10.762
 6520WAT     H233512   3.858   1.294  10.769
 6521WAT      O33513   5.534   1.673   2.492
 6521WAT     H133514   5.540   1.620   2.412
 6521WAT     H233515   5.537   1.610   2.564
 6522WAT      O33516   1.216   3.095  11.110
 6522WAT     H133517   1.206   3.131  11.022
 6522WAT     H233518   1.236   3.002  11.097
 6523WAT      O33519   1.136   0.880  10.620
 6523WAT     H133520   1.097   0.792  10.621
 6523WAT     H233521   1.062   0.939  10.637
 6524WAT      O33522   0.713   1.706   0.727
 6524WAT     H133523   0.721   1.641   0.657
 6524WAT     H233524   0.620   1.705   0.749
 6525WAT      O33525   3.215   1.346   0.833
 6525WAT     H133526   3.160   1.398   0.891
 6525WAT     H233527   3.171   1.261   0.829
 6526WAT      O33528   5.217   5.156   1.157
 6526WAT     H133529   5.127   5.190   1.154
 6526WAT     H233530   5.252   5.173   1.070
 6527WAT      O33531   2.128   4.156   9.760
 6527WAT     H133532   2.096   4.110   9.683
 6527WAT     H233533   2.058   4.219   9.781
 6528WAT      O33534   1.899   4.373   2.108
 6528WAT     H133535   1.890   4.368   2.012
 6528WAT     H233536   1.836   4.308   2.141
 6529WAT      O33537   4.442   4.851   0.309
 6529WAT     H133538   4.495   4.783   0.266
 6529WAT     H233539   4.453   4.835   0.402
 6530WAT      O33540   5.759   2.115  10.221
 6530WAT     H133541   5.699   2.045  10.196
 6530WAT     H233542   5.805   2.081  10.298
 6531WAT      O33543   2.625   5.961   7.464
 6531WAT     H133544   2.590   6.050   7.456
 6531WAT     H233545   2.552   5.904   7.441
 6532WAT      O33546   1.461   4.704   4.597
 6532WAT     H133547   1.555   4.717   4.606
 6532WAT     H233548   1.452   4.624   4.544
 6533WAT      O33549   3.195   6.113  10.505
 6533WAT     H133550   3.127   6.046  10.496
 6533WAT     H233551   3.220   6.109  10.597
 6534WAT      O33552   6.100   6.088   9.821
 6534WAT     H133553   6.146   6.005   9.823
 6534WAT     H233554   6.087   6.106   9.728
 6535WAT      O33555   2.601   5.600  12.432
 6535WAT     H133556   2.560   5.684  12.411
 6535WAT     H233557   2.603   5.597  12.528
 6536WAT      O33558   5.605   3.285   1.656
 6536WAT     H133559   5.623   3.371   1.619
 6536WAT     H233560   5.667   3.277   1.728
 6537WAT      O33561   1.605   4.606   9.628
 6537WAT     H133562   1.629   4.525   9.582
 6537WAT     H233563   1.575   4.576   9.714
 6538WAT      O33564   4.285   5.307   1.862
 6538WAT     H133565   4.349   5.368   1.897
 6538WAT     H233566   4.290   5.231   1.921
 6539WAT      O33567   1.550   0.134   2.373
 6539WAT     H133568   1.536   0.228   2.358
 6539WAT     H233569   1.463   0.095   2.365
 6540WAT      O33570   4.940   1.424   9.476
 6540WAT     H133571   4.917   1.449   9.566
 6540WAT     H233572   4.917   1.331   9.472
 6541WAT      O33573   0.232   4.357   4.625
 6541WAT     H133574   0.219   4.452   4.625
 6541WAT     H233575   0.205   4.329   4.537
 6542WAT      O33576   5.051   4.599   9.780
 6542WAT     H133577   5.023   4.628   9.693
 6542WAT     H233578   4.972   4.600   9.833
 6543WAT      O33579   1.610   2.495   9.521
 6543WAT     H133580   1.667   2.562   9.559
 6543WAT     H233581   1.666   2.450   9.457
 6544WAT      O33582   2.092   4.368   8.880
 6544WAT     H133583   2.185   4.387   8.884
 6544WAT     H233584   2.079   4.329   8.794
 6545WAT      O33585   2.521   5.165  12.397
 6545WAT     H133586   2.490   5.076  12.381
 6545WAT     H233587   2.577   5.184  12.321
 6546WAT      O33588   6.168   0.741  12.034
 6546WAT     H133589   6.257   0.767  12.010
 6546WAT     H233590   6.160   0.768  12.126
 6547WAT      O33591   5.670   1.378   2.071
 6547WAT     H133592   5.755   1.420   2.087
 6547WAT     H233593   5.692   1.286   2.058
 6548WAT      O33594   3.353   5.719  10.502
 6548WAT     H133595   3.317   5.697  10.416
 6548WAT     H233596   3.336   5.643  10.556
 6549WAT      O33597   4.246   3.712   1.875
 6549WAT     H133598   4.180   3.709   1.944
 6549WAT     H233599   4.269   3.620   1.860
 6550WAT      O33600   5.875   5.653   2.431
 6550WAT     H133601   5.796   5.624   2.477
 6550WAT     H233602   5.846   5.668   2.341
 6551WAT      O33603   0.128   5.839  10.625
 6551WAT     H133604   0.128   5.743  10.634
 6551WAT     H233605   0.061   5.868  10.687
 6552WAT      O33606   2.572   2.629   9.190
 6552WAT     H133607   2.512   2.686   9.239
 6552WAT     H233608   2.638   2.603   9.254
 6553WAT      O33609   5.524   5.250   3.927
 6553WAT     H133610   5.431   5.272   3.917
 6553WAT     H233611   5.530   5.215   4.016
 6554WAT      O33612   4.737   6.173  11.358
 6554WAT     H133613   4.830   6.154  11.369
 6554WAT     H233614   4.694   6.089  11.376
 6555WAT      O33615   3.823   3.292   4.784
 6555WAT     H133616   3.782   3.205   4.785
 6555WAT     H233617   3.892   3.285   4.718
 6556WAT      O33618   5.770   4.982  11.402
 6556WAT     H133619   5.766   5.051  11.467
 6556WAT     H233620   5.828   4.916  11.440
 6557WAT      O33621   2.150   3.703   8.875
 6557WAT     H133622   2.200   3.656   8.808
 6557WAT     H233623   2.101   3.635   8.921
 6558WAT      O33624   4.758   2.513  12.328
 6558WAT     H133625   4.689   2.485  12.388
 6558WAT     H233626   4.787   2.597  12.364
 6559WAT      O33627   4.375   3.308   1.053
 6559WAT     H133628   4.414   3.238   1.001
 6559WAT     H233629   4.282   3.285   1.058
 6560WAT      O33630   3.529   1.864  10.819
 6560WAT     H133631   3.518   1.936  10.757
 6560WAT     H233632   3.566   1.904  10.897
 6561WAT      O33633   1.191   5.701   2.516
 6561WAT     H133634   1.134   5.755   2.463
 6561WAT     H233635   1.214   5.756   2.591
 6562WAT      O33636   3.405   1.942   4.757
 6562WAT     H133637   3.428   1.856   4.792
 6562WAT     H233638   3.319   1.929   4.716
 6563WAT      O33639   0.320   4.328  11.090
 6563WAT     H133640   0.254   4.323  11.159
 6563WAT     H233641   0.395   4.280  11.125
 6564WAT      O33642   0.880   0.835   0.615
 6564WAT     H133643   0.839   0.888   0.684
 6564WAT     H233644   0.974   0.842   0.631
 6565WAT      O33645   0.997   2.685  10.836
 6565WAT     H133646   0.991   2.622  10.764
 6565WAT     H233647   1.064   2.748  10.806
 6566WAT      O33648   2.940   5.536  11.891
 6566WAT     H133649   2.971   5.566  11.976
 6566WAT     H233650   2.869   5.475  11.912
 6567WAT      O33651   0.734   5.274  10.618
 6567WAT     H133652   0.734   5.201  10.681
 6567WAT     H233653   0.686   5.240  10.543
 6568WAT      O33654   0.765   3.566  10.753
 6568WAT     H133655   0.849   3.519  10.753
 6568WAT     H233656   0.758   3.600  10.842
 6569WAT      O33657   0.064   5.983   2.597
 6569WAT     H133658   0.032   5.936   2.674
 6569WAT     H233659  -0.014   5.998   2.544
 6570WAT      O33660   4.597   6.006   9.730
 6570WAT     H133661   4.537   5.941   9.693
 6570WAT     H233662   4.679   5.993   9.681
 6571WAT      O33663   5.469   4.028  11.697
 6571WAT     H133664   5.531   3.968  11.739
 6571WAT     H233665   5.524   4.089  11.647
 6572WAT      O33666   4.758   0.581  12.681
 6572WAT     H133667   4.728   0.512  12.621
 6572WAT     H233668   4.852   0.567  12.688
 6573WAT      O33669   4.219   1.275   4.269
 6573WAT     H133670   4.270   1.319   4.337
 6573WAT     H233671   4.128   1.298   4.289
 6574WAT      O33672   2.051   1.930   9.292
 6574WAT     H133673   2.018   1.876   9.221
 6574WAT     H233674   2.045   2.020   9.259
 6575WAT      O33675   4.482   0.498   1.533
 6575WAT     H133676   4.478   0.476   1.440
 6575WAT     H233677   4.400   0.465   1.569
 6576WAT      O33678   2.737   2.862  12.425
 6576WAT     H133679   2.796   2.801  12.381
 6576WAT     H233680   2.651   2.843  12.389
 6577WAT      O33681   3.528   1.158   3.175
 6577WAT     H133682   3.439   1.178   3.204
 6577WAT     H233683   3.566   1.243   3.153
 6578WAT      O33684   3.655   4.327   8.510
 6578WAT     H133685   3.726   4.262   8.509
 6578WAT     H233686   3.700   4.411   8.521
 6579WAT      O33687   4.524   1.050  12.154
 6579WAT     H133688   4.593   0.984  12.143
 6579WAT     H233689   4.442   1.000  12.148
 6580WAT      O33690   3.032   2.872   0.521
 6580WAT     H133691   2.984   2.809   0.467
 6580WAT     H233692   3.111   2.824   0.548
 6581WAT      O33693   0.956   5.537   7.943
 6581WAT     H133694   0.878   5.574   7.983
 6581WAT     H233695   1.030   5.581   7.986
 6582WAT      O33696   1.839   3.427   3.921
 6582WAT     H133697   1.928   3.392   3.910
 6582WAT     H233698   1.783   3.366   3.874
 6583WAT      O33699   5.373   3.955   2.187
 6583WAT     H133700   5.306   3.896   2.152
 6583WAT     H233701   5.345   4.043   2.158
 6584WAT      O33702   4.049   1.959   3.014
 6584WAT     H133703   4.017   1.909   3.089
 6584WAT     H233704   4.060   1.894   2.945
 6585WAT      O33705   0.154   0.642   9.393
 6585WAT     H133706   0.159   0.682   9.306
 6585WAT     H233707   0.073   0.591   9.391
 6586WAT      O33708   5.743   1.409   9.968
 6586WAT     H133709   5.720   1.478  10.030
 6586WAT     H233710   5.740   1.451   9.882
 6587WAT      O33711   4.165   4.252   0.419
 6587WAT     H133712   4.233   4.320   0.413
 6587WAT     H233713   4.085   4.300   0.438
 6588WAT      O33714   2.670   4.143   3.083
 6588WAT     H133715   2.621   4.181   3.156
 6588WAT     H233716   2.604   4.097   3.032
 6589WAT      O33717   3.606   6.063   0.031
 6589WAT     H133718   3.656   6.139   0.061
 6589WAT     H233719   3.519   6.096   0.013
 6590WAT      O33720   4.394   2.019   2.559
 6590WAT     H133721   4.446   2.092   2.591
 6590WAT     H233722   4.350   2.052   2.481
 6591WAT      O33723   2.582   2.691   3.652
 6591WAT     H133724   2.567   2.734   3.568
 6591WAT     H233725   2.496   2.689   3.694
 6592WAT      O33726   4.756   3.718  12.213
 6592WAT     H133727   4.801   3.666  12.146
 6592WAT     H233728   4.763   3.666  12.293
 6593WAT      O33729   0.088   3.297  12.522
 6593WAT     H133730   0.178   3.292  12.554
 6593WAT     H233731   0.096   3.309  12.428
 6594WAT      O33732   1.442   4.349   3.982
 6594WAT     H133733   1.498   4.350   4.059
 6594WAT     H233734   1.432   4.441   3.959
 6595WAT      O33735   0.273   0.034   3.843
 6595WAT     H133736   0.277   0.047   3.937
 6595WAT     H233737   0.355  -0.010   3.820
 6596WAT      O33738   4.471   1.370  11.262
 6596WAT     H133739   4.538   1.379  11.330
 6596WAT     H233740   4.410   1.306  11.297
 6597WAT      O33741   1.104   1.548   3.632
 6597WAT     H133742   1.051   1.598   3.570
 6597WAT     H233743   1.069   1.572   3.718
 6598WAT      O33744   4.674   3.625  11.310
 6598WAT     H133745   4.726   3.703  11.295
 6598WAT     H233746   4.708   3.560  11.248
 6599WAT      O33747   0.900   1.705   3.469
 6599WAT     H133748   0.887   1.799   3.470
 6599WAT     H233749   0.882   1.678   3.379
 6600WAT      O33750   4.398   5.320   9.068
 6600WAT     H133751   4.444   5.404   9.065
 6600WAT     H233752   4.467   5.255   9.054
 6601WAT      O33753   1.713   4.685  12.476
 6601WAT     H133754   1.711   4.770  12.520
 6601WAT     H233755   1.660   4.628  12.532
 6602WAT      O33756   4.845   6.040   8.559
 6602WAT     H133757   4.788   5.980   8.511
 6602WAT     H233758   4.798   6.124   8.556
 6603WAT      O33759   0.593   0.593  12.571
 6603WAT     H133760   0.590   0.497  12.577
 6603WAT     H233761   0.680   0.616  12.604
 6604WAT      O33762   1.783   4.069  11.418
 6604WAT     H133763   1.873   4.038  11.415
 6604WAT     H233764   1.752   4.045  11.505
 6605WAT      O33765   2.878   0.179   7.895
 6605WAT     H133766   2.820   0.242   7.938
 6605WAT     H233767   2.887   0.108   7.959
 6606WAT      O33768   5.462   4.747   4.638
 6606WAT     H133769   5.438   4.760   4.547
 6606WAT     H233770   5.388   4.699   4.676
 6607WAT      O33771   2.561   2.825   4.588
 6607WAT     H133772   2.584   2.918   4.582
 6607WAT     H233773   2.465   2.824   4.590
 6608WAT      O33774   1.905   4.818   9.307
 6608WAT     H133775   1.875   4.759   9.376
 6608WAT     H233776   1.923   4.761   9.233
 6609WAT      O33777   4.110   2.585   2.649
 6609WAT     H133778   4.143   2.645   2.716
 6609WAT     H233779   4.160   2.505   2.661
 6610WAT      O33780   3.822   5.660   8.857
 6610WAT     H133781   3.772   5.681   8.936
 6610WAT     H233782   3.757   5.664   8.786
 6611WAT      O33783   2.989   1.076   2.153
 6611WAT     H133784   3.075   1.117   2.144
 6611WAT     H233785   2.970   1.081   2.247
 6612WAT      O33786   3.912   4.047   2.447
 6612WAT     H133787   3.820   4.058   2.470
 6612WAT     H233788   3.945   3.981   2.508
 6613WAT      O33789   0.061   0.476   1.617
 6613WAT     H133790   0.153   0.466   1.642
 6613WAT     H233791   0.017   0.403   1.661
 6614WAT      O33792   4.954   3.330   9.776
 6614WAT     H133793   5.022   3.281   9.730
 6614WAT     H233794   5.000   3.403   9.818
 6615WAT      O33795   5.862   0.674  10.445
 6615WAT     H133796   5.816   0.622  10.511
 6615WAT     H233797   5.952   0.681  10.477
 6616WAT      O33798   5.802   0.555  11.563
 6616WAT     H133799   5.775   0.480  11.510
 6616WAT     H233800   5.767   0.538  11.650
 6617WAT      O33801   1.154   4.819   2.966
 6617WAT     H133802   1.196   4.753   3.022
 6617WAT     H233803   1.079   4.849   3.017
 6618WAT      O33804   2.205   0.502   2.128
 6618WAT     H133805   2.187   0.594   2.106
 6618WAT     H233806   2.131   0.475   2.181
 6619WAT      O33807   2.704   1.047  12.610
 6619WAT     H133808   2.723   0.985  12.680
 6619WAT     H233809   2.678   1.127  12.656
 6620WAT      O33810   4.179   4.468   7.733
 6620WAT     H133811   4.254   4.506   7.777
 6620WAT     H233812   4.214   4.433   7.651
 6621WAT      O33813   2.484   1.043  10.814
 6621WAT     H133814   2.551   0.974  10.817
 6621WAT     H233815   2.412   1.004  10.765
 6622WAT      O33816   2.582   2.679   4.273
 6622WAT     H133817   2.642   2.742   4.312
 6622WAT     H233818   2.638   2.607   4.243
 6623WAT      O33819   0.270   6.031   9.641
 6623WAT     H133820   0.330   6.073   9.579
 6623WAT     H233821   0.219   6.104   9.677
 6624WAT      O33822   3.583   5.372  11.859
 6624WAT     H133823   3.636   5.348  11.935
 6624WAT     H233824   3.647   5.405  11.795
 6625WAT      O33825   5.351   5.890   9.254
 6625WAT     H133826   5.271   5.940   9.271
 6625WAT     H233827   5.349   5.873   9.160
 6626WAT      O33828   3.601   3.203   8.102
 6626WAT     H133829   3.565   3.285   8.067
 6626WAT     H233830   3.624   3.152   8.025
 6627WAT      O33831   0.316   2.572   0.443
 6627WAT     H133832   0.258   2.497   0.431
 6627WAT     H233833   0.386   2.539   0.499
 6628WAT      O33834   2.123   0.779   0.644
 6628WAT     H133835   2.182   0.811   0.576
 6628WAT     H233836   2.036   0.797   0.610
 6629WAT      O33837   5.953   4.002   2.346
 6629WAT     H133838   5.869   3.970   2.313
 6629WAT     H233839   5.974   3.943   2.419
 6630WAT      O33840   4.519   1.053   3.181
 6630WAT     H133841   4.424   1.046   3.190
 6630WAT     H233842   4.545   1.114   3.250
 6631WAT      O33843   3.626   5.423   3.098
 6631WAT     H133844   3.584   5.338   3.087
 6631WAT     H233845   3.571   5.483   3.047
 6632WAT      O33846   5.612   1.942  11.788
 6632WAT     H133847   5.675   1.972  11.722
 6632WAT     H233848   5.620   1.846  11.787
 6633WAT      O33849   2.162   5.028  11.947
 6633WAT     H133850   2.096   4.988  11.890
 6633WAT     H233851   2.219   5.076  11.887
 6634WAT      O33852   5.650   4.107   2.863
 6634WAT     H133853   5.629   4.061   2.944
 6634WAT     H233854   5.745   4.095   2.853
 6635WAT      O33855   5.214   2.251   8.910
 6635WAT     H133856   5.274   2.238   8.837
 6635WAT     H233857   5.262   2.221   8.987
 6636WAT      O33858   3.563   5.908  12.516
 6636WAT     H133859   3.577   5.947  12.602
 6636WAT     H233860   3.650   5.908  12.475
 6637WAT      O33861   1.295   3.677   2.854
 6637WAT     H133862   1.223   3.666   2.915
 6637WAT     H233863   1.320   3.769   2.863
 6638WAT      O33864   2.031   1.251  10.954
 6638WAT     H133865   2.117   1.257  10.913
 6638WAT     H233866   1.980   1.321  10.914
 6639WAT      O33867   5.036   0.352   1.605
 6639WAT     H133868   4.990   0.410   1.666
 6639WAT     H233869   5.018   0.389   1.519
 6640WAT      O33870   1.439   4.682   8.441
 6640WAT     H133871   1.410   4.700   8.352
 6640WAT     H233872   1.362   4.701   8.495
 6641WAT      O33873   0.397   0.050   2.025
 6641WAT     H133874   0.377   0.119   2.088
 6641WAT     H233875   0.329   0.057   1.958
 6642WAT      O33876   2.293   5.208  12.152
 6642WAT     H133877   2.238   5.176  12.224
 6642WAT     H233878   2.231   5.245  12.090
 6643WAT      O33879   3.356   4.785   0.414
 6643WAT     H133880   3.438   4.736   0.421
 6643WAT     H233881   3.304   4.736   0.351
 6644WAT      O33882   5.643   6.189  11.835
 6644WAT     H133883   5.691   6.107  11.838
 6644WAT     H233884   5.643   6.220  11.926
 6645WAT      O33885   1.604   1.363   9.233
 6645WAT     H133886   1.549   1.285   9.227
 6645WAT     H233887   1.583   1.414   9.155
 6646WAT      O33888   1.208   1.426  12.170
 6646WAT     H133889   1.149   1.351  12.168
 6646WAT     H233890   1.174   1.486  12.103
 6647WAT      O33891   3.615   1.182   2.024
 6647WAT     H133892   3.676   1.186   2.097
 6647WAT     H233893   3.590   1.090   2.017
 6648WAT      O33894   0.176   3.745   8.828
 6648WAT     H133895   0.150   3.675   8.888
 6648WAT     H233896   0.142   3.718   8.743
 6649WAT      O33897   3.661   5.629  11.668
 6649WAT     H133898   3.591   5.668  11.721
 6649WAT     H233899   3.742   5.653  11.713
 6650WAT      O33900   3.062   2.574   8.764
 6650WAT     H133901   3.036   2.605   8.850
 6650WAT     H233902   2.999   2.614   8.704
 6651WAT      O33903   5.460   4.599   9.441
 6651WAT     H133904   5.478   4.663   9.509
 6651WAT     H233905   5.545   4.581   9.402
 6652WAT      O33906   5.709   2.026   9.033
 6652WAT     H133907   5.628   1.976   9.038
 6652WAT     H233908   5.758   1.986   8.961
 6653WAT      O33909   0.310   6.098  11.886
 6653WAT     H133910   0.258   6.018  11.901
 6653WAT     H233911   0.245   6.168  11.881
 6654WAT      O33912   0.784   4.074   3.744
 6654WAT     H133913   0.721   4.088   3.674
 6654WAT     H233914   0.785   4.157   3.793
 6655WAT      O33915   0.699   2.983   8.839
 6655WAT     H133916   0.656   2.994   8.754
 6655WAT     H233917   0.771   3.046   8.838
 6656WAT      O33918   6.162   2.095   2.335
 6656WAT     H133919   6.193   2.011   2.368
 6656WAT     H233920   6.151   2.082   2.241
 6657WAT      O33921   1.541   3.190  12.419
 6657WAT     H133922   1.494   3.184  12.502
 6657WAT     H233923   1.619   3.136  12.432
 6658WAT      O33924   3.793   6.147   2.654
 6658WAT     H133925   3.726   6.125   2.719
 6658WAT     H233926   3.812   6.064   2.611
 6659WAT      O33927   2.926   4.555   9.625
 6659WAT     H133928   3.016   4.564   9.596
 6659WAT     H233929   2.928   4.481   9.687
 6660WAT      O33930   2.905   2.560   2.913
 6660WAT     H133931   2.827   2.505   2.922
 6660WAT     H233932   2.883   2.622   2.844
 6661WAT      O33933   2.592   2.352   9.767
 6661WAT     H133934   2.508   2.395   9.783
 6661WAT     H233935   2.652   2.424   9.747
 6662WAT      O33936   2.618   0.079   0.148
 6662WAT     H133937   2.689   0.134   0.180
 6662WAT     H233938   2.632   0.073   0.054
 6663WAT      O33939   2.648   1.876   3.856
 6663WAT     H133940   2.711   1.888   3.927
 6663WAT     H233941   2.621   1.965   3.833
 6664WAT      O33942   6.177   3.695   3.406
 6664WAT     H133943   6.228   3.664   3.331
 6664WAT     H233944   6.177   3.791   3.397
 6665WAT      O33945   2.900   3.586   0.413
 6665WAT     H133946   2.819   3.607   0.459
 6665WAT     H233947   2.878   3.595   0.320
 6666WAT      O33948   4.850   5.659   1.376
 6666WAT     H133949   4.827   5.568   1.392
 6666WAT     H233950   4.784   5.690   1.314
 6667WAT      O33951   2.787   2.182   3.591
 6667WAT     H133952   2.738   2.123   3.534
 6667WAT     H233953   2.743   2.267   3.581
 6668WAT      O33954   5.144   2.030   7.974
 6668WAT     H133955   5.160   2.083   8.051
 6668WAT     H233956   5.139   2.093   7.902
 6669WAT      O33957   1.523   4.764  10.203
 6669WAT     H133958   1.537   4.739  10.294
 6669WAT     H233959   1.430   4.787  10.198
 6670WAT      O33960   4.550   5.206  11.381
 6670WAT     H133961   4.604   5.278  11.412
 6670WAT     H233962   4.577   5.192  11.291
 6671WAT      O33963   3.036   5.357  10.277
 6671WAT     H133964   3.047   5.418  10.349
 6671WAT     H233965   2.991   5.282  10.316
 6672WAT      O33966   1.153   1.141   9.530
 6672WAT     H133967   1.185   1.120   9.618
 6672WAT     H233968   1.206   1.216   9.503
 6673WAT      O33969   3.876   2.824   9.392
 6673WAT     H133970   3.782   2.819   9.408
 6673WAT     H233971   3.888   2.782   9.307
 6674WAT      O33972   1.868   1.904   3.020
 6674WAT     H133973   1.934   1.891   3.087
 6674WAT     H233974   1.851   1.998   3.020
 6675WAT      O33975   0.774   5.491   4.364
 6675WAT     H133976   0.814   5.510   4.279
 6675WAT     H233977   0.801   5.563   4.421
 6676WAT      O33978   1.881   4.826  10.273
 6676WAT     H133979   1.842   4.905  10.310
 6676WAT     H233980   1.957   4.808  10.329
 6677WAT      O33981   3.225   2.383  11.748
 6677WAT     H133982   3.307   2.385  11.796
 6677WAT     H233983   3.193   2.474  11.751
 6678WAT      O33984   2.586   5.612  12.118
 6678WAT     H133985   2.621   5.692  12.078
 6678WAT     H233986   2.525   5.643  12.185
 6679WAT      O33987   3.120   4.439   3.741
 6679WAT     H133988   3.076   4.470   3.820
 6679WAT     H233989   3.052   4.444   3.673
 6680WAT      O33990   0.105   5.771   9.437
 6680WAT     H133991   0.181   5.732   9.393
 6680WAT     H233992   0.042   5.787   9.367
 6681WAT      O33993   0.819   1.225   2.255
 6681WAT     H133994   0.863   1.285   2.195
 6681WAT     H233995   0.880   1.213   2.328
 6682WAT      O33996   4.006   1.088   8.502
 6682WAT     H133997   4.003   1.048   8.589
 6682WAT     H233998   3.932   1.149   8.501
 6683WAT      O33999   4.004   4.387   2.547
 6683WAT     H134000   3.988   4.354   2.636
 6683WAT     H234001   3.954   4.468   2.542
 6684WAT      O34002   5.516   1.641   1.927
 6684WAT     H134003   5.482   1.643   2.017
 6684WAT     H234004   5.438   1.655   1.872
 6685WAT      O34005   2.918   2.458   0.543
 6685WAT     H134006   2.877   2.408   0.613
 6685WAT     H234007   2.947   2.392   0.480
 6686WAT      O34008   3.269   4.217   9.205
 6686WAT     H134009   3.220   4.190   9.283
 6686WAT     H234010   3.292   4.134   9.162
 6687WAT      O34011   2.192   2.050   1.869
 6687WAT     H134012   2.218   2.137   1.899
 6687WAT     H234013   2.273   2.011   1.836
 6688WAT      O34014   3.195   3.053   8.667
 6688WAT     H134015   3.101   3.052   8.684
 6688WAT     H234016   3.213   2.966   8.631
 6689WAT      O34017   3.439   4.942   9.207
 6689WAT     H134018   3.399   4.913   9.125
 6689WAT     H234019   3.388   4.898   9.275
 6690WAT      O34020   3.868   0.052   8.724
 6690WAT     H134021   3.888   0.125   8.782
 6690WAT     H234022   3.952   0.030   8.684
 6691WAT      O34023   6.013   3.821   8.148
 6691WAT     H134024   5.975   3.828   8.236
 6691WAT     H234025   6.007   3.909   8.111
 6692WAT      O34026   5.733   5.211  12.637
 6692WAT     H134027   5.758   5.124  12.669
 6692WAT     H234028   5.653   5.232  12.686
 6693WAT      O34029   3.923   1.312   2.301
 6693WAT     H134030   3.904   1.405   2.309
 6693WAT     H234031   4.010   1.308   2.262
 6694WAT      O34032   3.943   2.884   8.482
 6694WAT     H134033   3.851   2.901   8.463
 6694WAT     H234034   3.990   2.961   8.447
 6695WAT      O34035   5.493   2.175   2.440
 6695WAT     H134036   5.456   2.195   2.354
 6695WAT     H234037   5.517   2.082   2.435
 6696WAT      O34038   0.279   3.374   1.743
 6696WAT     H134039   0.347   3.329   1.693
 6696WAT     H234040   0.209   3.309   1.753
 6697WAT      O34041   3.125   2.268   7.871
 6697WAT     H134042   3.081   2.238   7.950
 6697WAT     H234043   3.211   2.227   7.874
 6698WAT      O34044   2.147   3.406  12.350
 6698WAT     H134045   2.142   3.499  12.328
 6698WAT     H234046   2.237   3.394  12.380
 6699WAT      O34047   5.428   0.169  11.330
 6699WAT     H134048   5.489   0.112  11.376
 6699WAT     H234049   5.468   0.183  11.244
 6700WAT      O34050   2.467   6.058   3.215
 6700WAT     H134051   2.532   6.089   3.278
 6700WAT     H234052   2.441   6.136   3.166
 6701WAT      O34053   3.638   4.356  10.015
 6701WAT     H134054   3.615   4.324   9.928
 6701WAT     H234055   3.570   4.319  10.072
 6702WAT      O34056   3.066   5.747   8.693
 6702WAT     H134057   3.115   5.816   8.651
 6702WAT     H234058   3.131   5.700   8.746
 6703WAT      O34059   4.470   3.803   1.267
 6703WAT     H134060   4.442   3.800   1.176
 6703WAT     H234061   4.565   3.815   1.263
 6704WAT      O34062   4.951   0.791   9.904
 6704WAT     H134063   4.993   0.862   9.954
 6704WAT     H234064   4.946   0.825   9.815
 6705WAT      O34065   5.462   3.812   3.232
 6705WAT     H134066   5.505   3.894   3.208
 6705WAT     H234067   5.531   3.762   3.277
 6706WAT      O34068   5.013   0.517   0.097
 6706WAT     H134069   5.068   0.546   0.170
 6706WAT     H234070   5.048   0.430   0.075
 6707WAT      O34071   5.001   1.890   1.363
 6707WAT     H134072   5.029   1.966   1.414
 6707WAT     H234073   4.907   1.882   1.382
 6708WAT      O34074   1.548   3.404   3.328
 6708WAT     H134075   1.518   3.494   3.339
 6708WAT     H234076   1.644   3.410   3.331
 6709WAT      O34077   1.640   1.343   4.780
 6709WAT     H134078   1.553   1.341   4.819
 6709WAT     H234079   1.634   1.285   4.704
 6710WAT      O34080   3.512   0.532   3.657
 6710WAT     H134081   3.564   0.461   3.694
 6710WAT     H234082   3.446   0.489   3.604
 6711WAT      O34083   2.683   1.838   8.460
 6711WAT     H134084   2.635   1.759   8.485
 6711WAT     H234085   2.615   1.904   8.446
 6712WAT      O34086   0.656   3.056   0.480
 6712WAT     H134087   0.685   3.056   0.388
 6712WAT     H234088   0.566   3.024   0.476
 6713WAT      O34089   2.724   5.284   1.467
 6713WAT     H134090   2.711   5.259   1.558
 6713WAT     H234091   2.650   5.243   1.421
 6714WAT      O34092   0.967   1.491  11.746
 6714WAT     H134093   1.004   1.500  11.834
 6714WAT     H234094   1.044   1.479  11.689
 6715WAT      O34095   3.033   0.970  10.496
 6715WAT     H134096   2.949   1.017  10.490
 6715WAT     H234097   3.039   0.942  10.587
 6716WAT      O34098   2.464   5.163   7.694
 6716WAT     H134099   2.482   5.108   7.617
 6716WAT     H234100   2.517   5.125   7.764
 6717WAT      O34101   5.574   4.867   8.030
 6717WAT     H134102   5.570   4.942   7.971
 6717WAT     H234103   5.483   4.838   8.039
 6718WAT      O34104   0.619   5.945   2.447
 6718WAT     H134105   0.623   5.866   2.393
 6718WAT     H234106   0.538   5.935   2.497
 6719WAT      O34107   4.470   2.468   9.510
 6719WAT     H134108   4.461   2.475   9.605
 6719WAT     H234109   4.382   2.448   9.479
 6720WAT      O34110   2.084   2.961   2.415
 6720WAT     H134111   2.012   2.971   2.478
 6720WAT     H234112   2.144   2.900   2.458
 6721WAT      O34113   5.595   2.178   8.392
 6721WAT     H134114   5.553   2.119   8.330
 6721WAT     H234115   5.664   2.126   8.432
 6722WAT      O34116   2.806   4.731   4.758
 6722WAT     H134117   2.877   4.670   4.735
 6722WAT     H234118   2.756   4.685   4.825
 6723WAT      O34119   0.656   1.695   4.868
 6723WAT     H134120   0.738   1.658   4.903
 6723WAT     H234121   0.594   1.686   4.940
 6724WAT      O34122   1.814   0.797   0.640
 6724WAT     H134123   1.727   0.760   0.655
 6724WAT     H234124   1.798   0.870   0.579
 6725WAT      O34125   3.830   4.061   0.778
 6725WAT     H134126   3.859   4.109   0.856
 6725WAT     H234127   3.746   4.101   0.755
 6726WAT      O34128   5.674   1.126   8.084
 6726WAT     H134129   5.592   1.175   8.077
 6726WAT     H234130   5.738   1.179   8.038
 6727WAT      O34131   2.516   1.634   8.585
 6727WAT     H134132   2.565   1.645   8.666
 6727WAT     H234133   2.438   1.584   8.611
 6728WAT      O34134   3.503   4.062   3.808
 6728WAT     H134135   3.434   4.091   3.869
 6728WAT     H234136   3.459   4.054   3.724
 6729WAT      O34137  -0.021   2.156  10.883
 6729WAT     H134138  -0.015   2.194  10.796
 6729WAT     H234139   0.058   2.184  10.928
 6730WAT      O34140   3.813   4.680  10.184
 6730WAT     H134141   3.838   4.693  10.275
 6730WAT     H234142   3.806   4.768  10.147
 6731WAT      O34143   0.266   2.124   9.248
 6731WAT     H134144   0.195   2.157   9.192
 6731WAT     H234145   0.222   2.069   9.313
 6732WAT      O34146   6.194   2.880   2.093
 6732WAT     H134147   6.207   2.894   2.187
 6732WAT     H234148   6.142   2.956   2.064
 6733WAT      O34149   3.971   1.201   1.595
 6733WAT     H134150   3.908   1.229   1.661
 6733WAT     H234151   4.033   1.146   1.644
 6734WAT      O34152   5.870   2.642  10.424
 6734WAT     H134153   5.954   2.632  10.468
 6734WAT     H234154   5.878   2.725  10.377
 6735WAT      O34155   3.261   5.606   0.805
 6735WAT     H134156   3.320   5.534   0.780
 6735WAT     H234157   3.189   5.562   0.851
 6736WAT      O34158   2.191   4.409   0.574
 6736WAT     H134159   2.196   4.350   0.649
 6736WAT     H234160   2.145   4.359   0.506
 6737WAT      O34161   2.754   1.070   4.293
 6737WAT     H134162   2.683   1.135   4.286
 6737WAT     H234163   2.711   0.986   4.275
 6738WAT      O34164   5.863   5.046   0.811
 6738WAT     H134165   5.912   4.963   0.815
 6738WAT     H234166   5.791   5.027   0.751
 6739WAT      O34167   4.107   5.168   1.507
 6739WAT     H134168   4.049   5.102   1.545
 6739WAT     H234169   4.065   5.252   1.531
 6740WAT      O34170   1.393   5.325  10.950
 6740WAT     H134171   1.483   5.339  10.981
 6740WAT     H234172   1.373   5.235  10.974
 6741WAT      O34173   5.952   3.971   0.136
 6741WAT     H134174   6.018   4.040   0.141
 6741WAT     H234175   5.873   4.016   0.105
 6742WAT      O34176   5.705   4.574  12.161
 6742WAT     H134177   5.749   4.655  12.133
 6742WAT     H234178   5.776   4.520  12.195
 6743WAT      O34179   2.151   1.890   9.794
 6743WAT     H134180   2.244   1.914   9.786
 6743WAT     H234181   2.118   1.894   9.704
 6744WAT      O34182   0.115   5.416   4.462
 6744WAT     H134183   0.196   5.365   4.464
 6744WAT     H234184   0.046   5.352   4.481
 6745WAT      O34185   5.747   5.670   1.148
 6745WAT     H134186   5.663   5.633   1.176
 6745WAT     H234187   5.792   5.599   1.103
 6746WAT      O34188   4.317   2.692  10.763
 6746WAT     H134189   4.297   2.669  10.854
 6746WAT     H234190   4.270   2.627  10.711
 6747WAT      O34191   4.856   3.487  12.339
 6747WAT     H134192   4.894   3.408  12.377
 6747WAT     H234193   4.931   3.543  12.320
 6748WAT      O34194   4.623   6.175   2.509
 6748WAT     H134195   4.659   6.239   2.447
 6748WAT     H234196   4.690   6.168   2.578
 6749WAT      O34197   4.519   4.130   8.989
 6749WAT     H134198   4.460   4.201   9.014
 6749WAT     H234199   4.507   4.065   9.058
 6750WAT      O34200   2.817   0.405   1.174
 6750WAT     H134201   2.822   0.343   1.102
 6750WAT     H234202   2.906   0.410   1.207
 6751WAT      O34203   5.665   0.871   1.504
 6751WAT     H134204   5.642   0.784   1.537
 6751WAT     H234205   5.602   0.930   1.546
 6752WAT      O34206   5.084   5.400   9.850
 6752WAT     H134207   5.029   5.340   9.799
 6752WAT     H234208   5.165   5.351   9.865
 6753WAT      O34209   0.071   4.261   8.786
 6753WAT     H134210   0.000   4.289   8.729
 6753WAT     H234211   0.131   4.214   8.729
 6754WAT      O34212   3.975   5.865  11.008
 6754WAT     H134213   3.942   5.777  11.028
 6754WAT     H234214   3.963   5.874  10.913
 6755WAT      O34215   0.950   5.356   8.368
 6755WAT     H134216   0.861   5.358   8.403
 6755WAT     H234217   0.992   5.432   8.407
 6756WAT      O34218   0.431   3.002  11.872
 6756WAT     H134219   0.348   2.954  11.877
 6756WAT     H234220   0.434   3.035  11.782
 6757WAT      O34221   0.181   1.910   9.773
 6757WAT     H134222   0.265   1.879   9.807
 6757WAT     H234223   0.150   1.838   9.718
 6758WAT      O34224   3.530   5.883  10.376
 6758WAT     H134225   3.610   5.854  10.331
 6758WAT     H234226   3.510   5.811  10.436
 6759WAT      O34227   4.813   5.262   2.213
 6759WAT     H134228   4.765   5.309   2.281
 6759WAT     H234229   4.789   5.170   2.227
 6760WAT      O34230   3.619   5.256   0.069
 6760WAT     H134231   3.560   5.320   0.030
 6760WAT     H234232   3.643   5.294   0.154
 6761WAT      O34233   3.179   0.443   0.114
 6761WAT     H134234   3.124   0.521   0.121
 6761WAT     H234235   3.261   0.475   0.078
 6762WAT      O34236   0.046   3.555   2.509
 6762WAT     H134237   0.107   3.485   2.532
 6762WAT     H234238  -0.022   3.512   2.458
 6763WAT      O34239   0.894   0.069   1.206
 6763WAT     H134240   0.820   0.126   1.187
 6763WAT     H234241   0.894   0.005   1.135
 6764WAT      O34242   5.211   1.746   2.608
 6764WAT     H134243   5.292   1.787   2.638
 6764WAT     H234244   5.208   1.662   2.654
 6765WAT      O34245   0.064   2.103   0.836
 6765WAT     H134246   0.134   2.117   0.773
 6765WAT     H234247   0.095   2.144   0.916
 6766WAT      O34248   3.680   2.871   8.141
 6766WAT     H134249   3.652   2.931   8.073
 6766WAT     H234250   3.599   2.843   8.184
 6767WAT      O34251   5.885   3.742   3.514
 6767WAT     H134252   5.969   3.727   3.558
 6767WAT     H234253   5.832   3.789   3.578
 6768WAT      O34254   3.006   4.542   4.989
 6768WAT     H134255   3.083   4.515   4.938
 6768WAT     H234256   2.933   4.496   4.948
 6769WAT      O34257   6.158   1.206   3.460
 6769WAT     H134258   6.216   1.165   3.524
 6769WAT     H234259   6.070   1.183   3.488
 6770WAT      O34260   0.715   3.454   8.665
 6770WAT     H134261   0.697   3.411   8.581
 6770WAT     H234262   0.629   3.471   8.702
 6771WAT      O34263   2.410   3.990   4.039
 6771WAT     H134264   2.390   4.008   4.131
 6771WAT     H234265   2.338   4.031   3.991
 6772WAT      O34266   3.892   5.948  12.012
 6772WAT     H134267   3.902   6.037  12.046
 6772WAT     H234268   3.799   5.941  11.990
 6773WAT      O34269   0.967   5.892  10.637
 6773WAT     H134270   0.912   5.828  10.684
 6773WAT     H234271   0.912   5.970  10.630
 6774WAT      O34272   5.551   2.108  12.457
 6774WAT     H134273   5.467   2.139  12.490
 6774WAT     H234274   5.542   2.013  12.454
 6775WAT      O34275   1.395   4.256   1.462
 6775WAT     H134276   1.416   4.281   1.552
 6775WAT     H234277   1.420   4.332   1.410
 6776WAT      O34278   0.095   1.242  10.245
 6776WAT     H134279   0.058   1.320  10.288
 6776WAT     H234280   0.138   1.276  10.167
 6777WAT      O34281   5.354   1.172  10.742
 6777WAT     H134282   5.278   1.221  10.711
 6777WAT     H234283   5.393   1.229  10.808
 6778WAT      O34284   3.357   3.752   4.299
 6778WAT     H134285   3.338   3.813   4.370
 6778WAT     H234286   3.426   3.695   4.333
 6779WAT      O34287   2.337   0.505   0.813
 6779WAT     H134288   2.372   0.520   0.725
 6779WAT     H234289   2.256   0.556   0.816
 6780WAT      O34290   2.923   4.262   3.944
 6780WAT     H134291   2.927   4.352   3.977
 6780WAT     H234292   2.871   4.268   3.864
 6781WAT      O34293   2.881   5.122   8.004
 6781WAT     H134294   2.838   5.191   7.954
 6781WAT     H234295   2.813   5.056   8.018
 6782WAT      O34296   2.594   5.737   3.251
 6782WAT     H134297   2.629   5.792   3.321
 6782WAT     H234298   2.607   5.788   3.172
 6783WAT      O34299   1.314   1.007   8.887
 6783WAT     H134300   1.385   0.950   8.916
 6783WAT     H234301   1.355   1.069   8.828
 6784WAT      O34302   2.210   4.785   0.950
 6784WAT     H134303   2.280   4.723   0.930
 6784WAT     H234304   2.247   4.842   1.018
 6785WAT      O34305   1.355   3.755   8.792
 6785WAT     H134306   1.406   3.765   8.873
 6785WAT     H234307   1.411   3.791   8.724
 6786WAT      O34308   4.757   0.459   2.455
 6786WAT     H134309   4.757   0.533   2.393
 6786WAT     H234310   4.779   0.498   2.539
 6787WAT      O34311   1.264   5.426  12.030
 6787WAT     H134312   1.305   5.342  12.050
 6787WAT     H234313   1.177   5.402  11.997
 6788WAT      O34314   4.381   2.813   1.275
 6788WAT     H134315   4.319   2.864   1.223
 6788WAT     H234316   4.328   2.777   1.346
 6789WAT      O34317   2.984   4.890   2.476
 6789WAT     H134318   2.996   4.859   2.565
 6789WAT     H234319   2.902   4.851   2.448
 6790WAT      O34320   0.922   0.395   0.654
 6790WAT     H134321   1.018   0.405   0.656
 6790WAT     H234322   0.892   0.469   0.599
 6791WAT      O34323   2.407   0.433   2.798
 6791WAT     H134324   2.442   0.512   2.755
 6791WAT     H234325   2.395   0.370   2.727
 6792WAT      O34326   2.075   4.582  12.093
 6792WAT     H134327   2.143   4.515  12.094
 6792WAT     H234328   2.122   4.665  12.086
 6793WAT      O34329   3.048   0.750   8.093
 6793WAT     H134330   3.143   0.748   8.088
 6793WAT     H234331   3.026   0.844   8.096
 6794WAT      O34332   4.096   6.060  10.762
 6794WAT     H134333   4.109   6.064  10.857
 6794WAT     H234334   4.001   6.050  10.751
 6795WAT      O34335   3.946   6.156   3.517
 6795WAT     H134336   3.947   6.169   3.612
 6795WAT     H234337   3.920   6.065   3.505
 6796WAT      O34338   1.172   5.825   0.352
 6796WAT     H134339   1.214   5.911   0.360
 6796WAT     H234340   1.111   5.835   0.279
 6797WAT      O34341   3.115   0.473   1.302
 6797WAT     H134342   3.166   0.403   1.344
 6797WAT     H234343   3.178   0.520   1.248
 6798WAT      O34344   0.947   3.063   2.691
 6798WAT     H134345   1.005   3.078   2.766
 6798WAT     H234346   0.992   3.103   2.617
 6799WAT      O34347   1.574   1.100  10.574
 6799WAT     H134348   1.511   1.141  10.634
 6799WAT     H234349   1.519   1.049  10.514
 6800WAT      O34350   2.930   3.993   3.965
 6800WAT     H134351   2.959   4.083   3.954
 6800WAT     H234352   2.835   3.996   3.950
 6801WAT      O34353   5.987   5.732  12.394
 6801WAT     H134354   6.074   5.769  12.380
 6801WAT     H234355   5.988   5.700  12.484
 6802WAT      O34356   2.671   4.403   0.126
 6802WAT     H134357   2.641   4.416   0.036
 6802WAT     H234358   2.748   4.347   0.119
 6803WAT      O34359   1.666   5.178   3.824
 6803WAT     H134360   1.701   5.260   3.859
 6803WAT     H234361   1.684   5.183   3.730
 6804WAT      O34362   5.347   4.097  10.407
 6804WAT     H134363   5.317   4.014  10.369
 6804WAT     H234364   5.352   4.157  10.333
 6805WAT      O34365   0.830  -0.013   8.785
 6805WAT     H134366   0.842   0.060   8.723
 6805WAT     H234367   0.738  -0.008   8.811
 6806WAT      O34368   0.642   1.418   9.355
 6806WAT     H134369   0.563   1.376   9.322
 6806WAT     H234370   0.668   1.365   9.430
 6807WAT      O34371   2.760   5.297   8.887
 6807WAT     H134372   2.847   5.269   8.857
 6807WAT     H234373   2.727   5.224   8.939
 6808WAT      O34374   3.680   4.674   7.657
 6808WAT     H134375   3.669   4.734   7.584
 6808WAT     H234376   3.602   4.685   7.710
 6809WAT      O34377   3.418   0.519   0.721
 6809WAT     H134378   3.341   0.548   0.771
 6809WAT     H234379   3.439   0.433   0.756
 6810WAT      O34380   2.304   4.174   2.800
 6810WAT     H134381   2.386   4.213   2.770
 6810WAT     H234382   2.327   4.127   2.880
 6811WAT      O34383   2.216   4.511  12.414
 6811WAT     H134384   2.204   4.593  12.366
 6811WAT     H234385   2.302   4.520  12.456
 6812WAT      O34386   1.333   0.519   3.573
 6812WAT     H134387   1.293   0.601   3.601
 6812WAT     H234388   1.296   0.453   3.631
 6813WAT      O34389   4.325   0.758   9.692
 6813WAT     H134390   4.330   0.826   9.625
 6813WAT     H234391   4.357   0.801   9.772
 6814WAT      O34392   4.849   5.189   0.937
 6814WAT     H134393   4.760   5.178   0.972
 6814WAT     H234394   4.899   5.223   1.012
 6815WAT      O34395   1.753   5.241   0.859
 6815WAT     H134396   1.779   5.193   0.938
 6815WAT     H234397   1.659   5.255   0.870
 6816WAT      O34398   1.708   4.819   8.827
 6816WAT     H134399   1.707   4.783   8.915
 6816WAT     H234400   1.626   4.788   8.788
 6817WAT      O34401   1.845   4.894   1.482
 6817WAT     H134402   1.863   4.876   1.389
 6817WAT     H234403   1.824   4.808   1.519
 6818WAT      O34404   3.099   3.308   3.777
 6818WAT     H134405   3.061   3.348   3.699
 6818WAT     H234406   3.029   3.310   3.842
 6819WAT      O34407   5.108   3.103   3.247
 6819WAT     H134408   5.101   3.008   3.238
 6819WAT     H234409   5.039   3.137   3.190
 6820WAT      O34410   2.332   2.364  10.065
 6820WAT     H134411   2.314   2.386  10.156
 6820WAT     H234412   2.250   2.385  10.019
 6821WAT      O34413   5.075   0.978   9.714
 6821WAT     H134414   5.102   0.993   9.624
 6821WAT     H234415   5.138   1.028   9.767
 6822WAT      O34416   5.044   5.629   0.257
 6822WAT     H134417   5.043   5.567   0.184
 6822WAT     H234418   5.010   5.710   0.219
 6823WAT      O34419   4.878   3.320   2.375
 6823WAT     H134420   4.815   3.381   2.413
 6823WAT     H234421   4.836   3.234   2.385
 6824WAT      O34422   0.494   4.404  11.549
 6824WAT     H134423   0.401   4.398  11.572
 6824WAT     H234424   0.511   4.498  11.541
 6825WAT      O34425   6.198   3.591  12.607
 6825WAT     H134426   6.151   3.527  12.553
 6825WAT     H234427   6.288   3.589  12.573
 6826WAT      O34428  -0.008   1.445   9.312
 6826WAT     H134429   0.083   1.433   9.287
 6826WAT     H234430  -0.027   1.371   9.370
 6827WAT      O34431   3.725   4.741  11.311
 6827WAT     H134432   3.804   4.795  11.302
 6827WAT     H234433   3.758   4.652  11.321
 6828WAT      O34434   6.003   0.676   1.439
 6828WAT     H134435   5.976   0.619   1.511
 6828WAT     H234436   6.087   0.711   1.468
 6829WAT      O34437   2.672   5.846   4.393
 6829WAT     H134438   2.640   5.811   4.310
 6829WAT     H234439   2.766   5.858   4.380
 6830WAT      O34440   1.409   4.947   4.464
 6830WAT     H134441   1.382   4.909   4.381
 6830WAT     H234442   1.452   4.875   4.510
 6831WAT      O34443   1.216   5.066  11.609
 6831WAT     H134444   1.155   5.083  11.537
 6831WAT     H234445   1.211   5.144  11.663
 6832WAT      O34446   3.268   3.510   9.844
 6832WAT     H134447   3.236   3.470   9.763
 6832WAT     H234448   3.288   3.436   9.901
 6833WAT      O34449   1.459   4.695   1.522
 6833WAT     H134450   1.458   4.613   1.473
 6833WAT     H234451   1.545   4.695   1.565
 6834WAT      O34452   6.142   3.453   3.543
 6834WAT     H134453   6.137   3.530   3.486
 6834WAT     H234454   6.051   3.425   3.553
 6835WAT      O34455   0.078   2.534   1.472
 6835WAT     H134456  -0.014   2.548   1.452
 6835WAT     H234457   0.082   2.532   1.568
 6836WAT      O34458   1.137   5.021   3.685
 6836WAT     H134459   1.137   5.116   3.673
 6836WAT     H234460   1.127   4.986   3.596
 6837WAT      O34461   4.810   5.674   4.314
 6837WAT     H134462   4.806   5.725   4.395
 6837WAT     H234463   4.903   5.656   4.300
 6838WAT      O34464   2.584   6.068   2.568
 6838WAT     H134465   2.654   6.133   2.563
 6838WAT     H234466   2.519   6.097   2.505
 6839WAT      O34467   1.161   5.326  11.265
 6839WAT     H134468   1.083   5.332  11.321
 6839WAT     H234469   1.126   5.317  11.177
 6840WAT      O34470   1.460   0.056   1.049
 6840WAT     H134471   1.499   0.084   0.966
 6840WAT     H234472   1.452  -0.039   1.041
 6841WAT      O34473   5.452   5.968   3.257
 6841WAT     H134474   5.366   5.958   3.298
 6841WAT     H234475   5.491   6.042   3.302
 6842WAT      O34476   4.900   0.220  11.552
 6842WAT     H134477   4.823   0.230  11.496
 6842WAT     H234478   4.974   0.217  11.490
 6843WAT      O34479   5.936   1.503  11.788
 6843WAT     H134480   5.985   1.580  11.757
 6843WAT     H234481   5.933   1.514  11.883
 6844WAT      O34482   2.548   3.612   9.300
 6844WAT     H134483   2.539   3.634   9.393
 6844WAT     H234484   2.589   3.689   9.262
 6845WAT      O34485   2.058   3.716  12.510
 6845WAT     H134486   2.043   3.810  12.523
 6845WAT     H234487   2.092   3.710  12.420
 6846WAT      O34488   3.742   1.286   4.646
 6846WAT     H134489   3.742   1.377   4.677
 6846WAT     H234490   3.653   1.256   4.662
 6847WAT      O34491   5.357   3.401   9.958
 6847WAT     H134492   5.442   3.367   9.931
 6847WAT     H234493   5.331   3.344  10.031
 6848WAT      O34494   2.354   5.158   2.922
 6848WAT     H134495   2.325   5.067   2.935
 6848WAT     H234496   2.278   5.211   2.948
 6849WAT      O34497   3.468   0.688   8.559
 6849WAT     H134498   3.462   0.736   8.477
 6849WAT     H234499   3.381   0.695   8.598
 6850WAT      O34500   2.302   4.870   8.662
 6850WAT     H134501   2.332   4.950   8.619
 6850WAT     H234502   2.235   4.900   8.724
 6851WAT      O34503   2.480   1.490  11.970
 6851WAT     H134504   2.421   1.436  12.022
 6851WAT     H234505   2.567   1.453  11.987
 6852WAT      O34506   4.512   2.937   4.252
 6852WAT     H134507   4.548   2.934   4.341
 6852WAT     H234508   4.545   2.858   4.210
 6853WAT      O34509   0.980   4.321  10.423
 6853WAT     H134510   1.064   4.277  10.438
 6853WAT     H234511   0.916   4.251  10.417
 6854WAT      O34512   1.758   2.519  11.468
 6854WAT     H134513   1.847   2.487  11.453
 6854WAT     H234514   1.733   2.483  11.553
 6855WAT      O34515   2.243   5.602   9.821
 6855WAT     H134516   2.286   5.687   9.830
 6855WAT     H234517   2.153   5.617   9.849
 6856WAT      O34518   1.829   3.481   3.289
 6856WAT     H134519   1.814   3.437   3.206
 6856WAT     H234520   1.907   3.535   3.273
 6857WAT      O34521   5.087   1.206   9.008
 6857WAT     H134522   5.057   1.207   9.099
 6857WAT     H234523   5.031   1.271   8.964
 6858WAT      O34524   6.159   1.676  10.647
 6858WAT     H134525   6.228   1.743  10.650
 6858WAT     H234526   6.084   1.718  10.690
 6859WAT      O34527   4.393   1.492  10.586
 6859WAT     H134528   4.302   1.522  10.590
 6859WAT     H234529   4.399   1.426  10.654
 6860WAT      O34530   5.858   4.569  10.777
 6860WAT     H134531   5.898   4.605  10.697
 6860WAT     H234532   5.892   4.480  10.783
 6861WAT      O34533   2.207   1.711  10.740
 6861WAT     H134534   2.122   1.684  10.775
 6861WAT     H234535   2.260   1.632  10.740
 6862WAT      O34536   4.193   2.442   9.417
 6862WAT     H134537   4.224   2.452   9.327
 6862WAT     H234538   4.105   2.403   9.408
 6863WAT      O34539   3.776   5.953   4.193
 6863WAT     H134540   3.686   5.918   4.191
 6863WAT     H234541   3.826   5.885   4.238
 6864WAT      O34542   3.268   5.368   3.711
 6864WAT     H134543   3.209   5.401   3.643
 6864WAT     H234544   3.208   5.340   3.781
 6865WAT      O34545   1.325   3.102   1.519
 6865WAT     H134546   1.239   3.062   1.510
 6865WAT     H234547   1.336   3.154   1.440
 6866WAT      O34548   4.049   1.039   2.753
 6866WAT     H134549   4.134   1.008   2.786
 6866WAT     H234550   4.063   1.132   2.735
 6867WAT      O34551   3.284   6.003   1.911
 6867WAT     H134552   3.326   6.019   1.996
 6867WAT     H234553   3.339   5.937   1.870
 6868WAT      O34554   3.204   0.130   9.727
 6868WAT     H134555   3.268   0.130   9.798
 6868WAT     H234556   3.142   0.061   9.751
 6869WAT      O34557   3.959   0.652  12.445
 6869WAT     H134558   4.054   0.653  12.452
 6869WAT     H234559   3.933   0.742  12.463
 6870WAT      O34560   1.549   4.816  12.129
 6870WAT     H134561   1.643   4.825  12.147
 6870WAT     H234562   1.534   4.869  12.051
 6871WAT      O34563   5.120   4.187  11.269
 6871WAT     H134564   5.087   4.150  11.186
 6871WAT     H234565   5.148   4.276  11.246
 6872WAT      O34566   3.356   6.171   0.011
 6872WAT     H134567   3.324   6.194  -0.076
 6872WAT     H234568   3.334   6.247   0.065
 6873WAT      O34569   5.183   1.401  11.154
 6873WAT     H134570   5.265   1.450  11.154
 6873WAT     H234571   5.200   1.325  11.098
 6874WAT      O34572   4.381   4.700   0.577
 6874WAT     H134573   4.475   4.684   0.582
 6874WAT     H234574   4.366   4.776   0.632
 6875WAT      O34575   3.598   0.826   2.315
 6875WAT     H134576   3.669   0.839   2.378
 6875WAT     H234577   3.549   0.751   2.350
 6876WAT      O34578   2.629   0.521   1.670
 6876WAT     H134579   2.641   0.593   1.733
 6876WAT     H234580   2.642   0.562   1.585
 6877WAT      O34581   5.864   1.150   8.519
 6877WAT     H134582   5.831   1.206   8.590
 6877WAT     H234583   5.786   1.105   8.486
 6878WAT      O34584   2.229   1.741   2.515
 6878WAT     H134585   2.139   1.753   2.545
 6878WAT     H234586   2.231   1.650   2.484
 6879WAT      O34587   4.026   0.755   2.634
 6879WAT     H134588   4.075   0.684   2.675
 6879WAT     H234589   4.025   0.824   2.700
 6880WAT      O34590   0.671   0.623   2.470
 6880WAT     H134591   0.694   0.562   2.399
 6880WAT     H234592   0.691   0.709   2.434
 6881WAT      O34593   4.492   2.047   1.738
 6881WAT     H134594   4.416   2.038   1.795
 6881WAT     H234595   4.549   2.108   1.783
 6882WAT      O34596   4.960   4.974   1.853
 6882WAT     H134597   4.888   5.034   1.869
 6882WAT     H234598   5.026   5.027   1.809
 6883WAT      O34599   5.524   3.745  11.143
 6883WAT     H134600   5.539   3.829  11.185
 6883WAT     H234601   5.435   3.751  11.107
 6884WAT      O34602   0.404   3.580  10.562
 6884WAT     H134603   0.480   3.536  10.523
 6884WAT     H234604   0.330   3.550  10.510
 6885WAT      O34605   5.197   5.282   8.916
 6885WAT     H134606   5.202   5.198   8.871
 6885WAT     H234607   5.178   5.260   9.007
 6886WAT      O34608   4.828   4.362  11.956
 6886WAT     H134609   4.751   4.383  12.009
 6886WAT     H234610   4.873   4.294  12.005
 6887WAT      O34611   2.526   0.110   9.316
 6887WAT     H134612   2.555   0.158   9.394
 6887WAT     H234613   2.597   0.049   9.298
 6888WAT      O34614   3.357   4.524   1.191
 6888WAT     H134615   3.289   4.465   1.160
 6888WAT     H234616   3.399   4.557   1.112
 6889WAT      O34617   0.103   2.568   0.212
 6889WAT     H134618   0.139   2.538   0.129
 6889WAT     H234619   0.180   2.595   0.262
 6890WAT      O34620   2.118   2.383   1.297
 6890WAT     H134621   2.152   2.395   1.385
 6890WAT     H234622   2.147   2.461   1.249
 6891WAT      O34623   3.964   2.623   8.146
 6891WAT     H134624   4.055   2.652   8.133
 6891WAT     H234625   3.973   2.539   8.192
 6892WAT      O34626   6.219   1.618   7.805
 6892WAT     H134627   6.253   1.707   7.796
 6892WAT     H234628   6.203   1.590   7.715
 6893WAT      O34629   3.863   1.329   9.662
 6893WAT     H134630   3.898   1.417   9.650
 6893WAT     H234631   3.940   1.272   9.658
 6894WAT      O34632   5.437   0.093   0.929
 6894WAT     H134633   5.454   0.056   0.843
 6894WAT     H234634   5.472   0.182   0.925
 6895WAT      O34635   3.809   5.698   3.844
 6895WAT     H134636   3.758   5.663   3.771
 6895WAT     H234637   3.744   5.741   3.900
 6896WAT      O34638   0.058   1.786   7.504
 6896WAT     H134639   0.100   1.848   7.445
 6896WAT     H234640   0.079   1.818   7.591
 6897WAT      O34641   0.667   6.203   1.436
 6897WAT     H134642   0.631   6.146   1.504
 6897WAT     H234643   0.649   6.157   1.354
 6898WAT      O34644   2.504   5.809   3.900
 6898WAT     H134645   2.420   5.848   3.925
 6898WAT     H234646   2.563   5.830   3.972
 6899WAT      O34647   5.635   1.011  12.416
 6899WAT     H134648   5.676   1.019  12.502
 6899WAT     H234649   5.580   1.089  12.409
 6900WAT      O34650   1.592   4.293  11.932
 6900WAT     H134651   1.590   4.373  11.880
 6900WAT     H234652   1.509   4.294  11.980
 6901WAT      O34653   5.951   5.251   1.482
 6901WAT     H134654   5.904   5.315   1.536
 6901WAT     H234655   5.934   5.278   1.392
 6902WAT      O34656   6.003   3.880   9.969
 6902WAT     H134657   5.916   3.910   9.942
 6902WAT     H234658   6.063   3.923   9.907
 6903WAT      O34659   6.013   4.911   2.397
 6903WAT     H134660   6.092   4.954   2.365
 6903WAT     H234661   5.949   4.982   2.407
 6904WAT      O34662   2.149   3.676  10.016
 6904WAT     H134663   2.245   3.687  10.017
 6904WAT     H234664   2.115   3.764  10.001
 6905WAT      O34665   1.299   2.632   8.125
 6905WAT     H134666   1.313   2.698   8.057
 6905WAT     H234667   1.353   2.558   8.097
 6906WAT      O34668   4.468   1.410  12.366
 6906WAT     H134669   4.537   1.344  12.355
 6906WAT     H234670   4.499   1.486  12.317
 6907WAT      O34671   1.313   2.641   2.298
 6907WAT     H134672   1.325   2.699   2.223
 6907WAT     H234673   1.222   2.612   2.292
 6908WAT      O34674   4.616   1.460   2.598
 6908WAT     H134675   4.673   1.506   2.659
 6908WAT     H234676   4.569   1.529   2.551
 6909WAT      O34677   0.777   1.303  11.089
 6909WAT     H134678   0.685   1.329  11.100
 6909WAT     H234679   0.774   1.231  11.026
 6910WAT      O34680   0.109   0.613   8.390
 6910WAT     H134681   0.178   0.546   8.390
 6910WAT     H234682   0.053   0.590   8.316
 6911WAT      O34683   3.253   1.329  12.473
 6911WAT     H134684   3.221   1.345  12.562
 6911WAT     H234685   3.331   1.275  12.485
 6912WAT      O34686   2.276   4.680   2.994
 6912WAT     H134687   2.208   4.661   3.059
 6912WAT     H234688   2.317   4.760   3.025
 6913WAT      O34689   1.349   5.193  12.145
 6913WAT     H134690   1.312   5.116  12.102
 6913WAT     H234691   1.323   5.184  12.236
 6914WAT      O34692   3.844   0.225  11.177
 6914WAT     H134693   3.782   0.226  11.104
 6914WAT     H234694   3.905   0.296  11.158
 6915WAT      O34695   3.570   2.138  10.955
 6915WAT     H134696   3.588   2.147  11.048
 6915WAT     H234697   3.653   2.111  10.916
 6916WAT      O34698   2.883   4.572   3.031
 6916WAT     H134699   2.894   4.478   3.016
 6916WAT     H234700   2.796   4.592   2.995
 6917WAT      O34701   1.662   2.128   7.955
 6917WAT     H134702   1.663   2.076   7.875
 6917WAT     H234703   1.720   2.202   7.936
 6918WAT      O34704   4.062   2.500   9.940
 6918WAT     H134705   4.051   2.467   9.850
 6918WAT     H234706   4.123   2.438   9.980
 6919WAT      O34707   3.999   1.499   1.031
 6919WAT     H134708   4.078   1.491   0.977
 6919WAT     H234709   3.982   1.411   1.062
 6920WAT      O34710   3.127   0.422   1.861
 6920WAT     H134711   3.062   0.383   1.920
 6920WAT     H234712   3.076   0.473   1.799
 6921WAT      O34713   4.931   3.073  11.996
 6921WAT     H134714   4.910   3.001  11.937
 6921WAT     H234715   4.879   3.146  11.964
 6922WAT      O34716   3.569   2.362   8.736
 6922WAT     H134717   3.600   2.353   8.646
 6922WAT     H234718   3.484   2.405   8.728
 6923WAT      O34719   5.368   3.470   9.656
 6923WAT     H134720   5.382   3.504   9.567
 6923WAT     H234721   5.331   3.544   9.704
 6924WAT      O34722   1.302   5.597   3.285
 6924WAT     H134723   1.330   5.518   3.330
 6924WAT     H234724   1.384   5.636   3.252
 6925WAT      O34725   2.009   2.379   3.163
 6925WAT     H134726   2.086   2.431   3.188
 6925WAT     H234727   1.958   2.438   3.107
 6926WAT      O34728   5.129   1.672  11.321
 6926WAT     H134729   5.130   1.687  11.227
 6926WAT     H234730   5.180   1.592  11.334
 6927WAT      O34731   4.357   5.284   3.168
 6927WAT     H134732   4.350   5.322   3.080
 6927WAT     H234733   4.322   5.350   3.226
 6928WAT      O34734   5.945   4.758   8.358
 6928WAT     H134735   5.858   4.735   8.326
 6928WAT     H234736   5.984   4.675   8.384
 6929WAT      O34737   4.562   5.175   7.853
 6929WAT     H134738   4.490   5.116   7.875
 6929WAT     H234739   4.641   5.124   7.874
 6930WAT      O34740   2.175   5.370   1.588
 6930WAT     H134741   2.145   5.459   1.569
 6930WAT     H234742   2.106   5.333   1.643
 6931WAT      O34743   1.358   5.830   8.790
 6931WAT     H134744   1.293   5.790   8.848
 6931WAT     H234745   1.309   5.850   8.710
 6932WAT      O34746   4.465   5.555  10.921
 6932WAT     H134747   4.436   5.599  10.841
 6932WAT     H234748   4.384   5.523  10.961
 6933WAT      O34749   0.591   5.153   8.372
 6933WAT     H134750   0.613   5.067   8.406
 6933WAT     H234751   0.499   5.146   8.347
 6934WAT      O34752   5.630   1.448   1.770
 6934WAT     H134753   5.652   1.359   1.795
 6934WAT     H234754   5.601   1.490   1.851
 6935WAT      O34755   4.586   4.476  10.727
 6935WAT     H134756   4.532   4.397  10.719
 6935WAT     H234757   4.621   4.473  10.815
 6936WAT      O34758   2.367   3.764   0.813
 6936WAT     H134759   2.336   3.854   0.817
 6936WAT     H234760   2.292   3.712   0.844
 6937WAT      O34761   4.451   5.444   1.388
 6937WAT     H134762   4.388   5.375   1.406
 6937WAT     H234763   4.443   5.460   1.294
 6938WAT      O34764   5.986   5.761  10.116
 6938WAT     H134765   5.961   5.786  10.027
 6938WAT     H234766   6.057   5.820  10.139
 6939WAT      O34767   5.652   4.903   0.423
 6939WAT     H134768   5.581   4.864   0.372
 6939WAT     H234769   5.675   4.837   0.487
 6940WAT      O34770   3.123   1.439   0.016
 6940WAT     H134771   3.193   1.406   0.073
 6940WAT     H234772   3.135   1.534   0.018
 6941WAT      O34773   2.630   2.948   1.808
 6941WAT     H134774   2.679   2.866   1.801
 6941WAT     H234775   2.542   2.921   1.837
 6942WAT      O34776   3.970   3.880   1.060
 6942WAT     H134777   3.911   3.811   1.090
 6942WAT     H234778   4.056   3.838   1.052
 6943WAT      O34779   3.100   4.919   2.143
 6943WAT     H134780   3.175   4.894   2.088
 6943WAT     H234781   3.065   4.836   2.175
 6944WAT      O34782   4.442   4.630   1.351
 6944WAT     H134783   4.377   4.628   1.280
 6944WAT     H234784   4.521   4.592   1.313
 6945WAT      O34785   5.327   3.355   7.662
 6945WAT     H134786   5.395   3.418   7.685
 6945WAT     H234787   5.321   3.297   7.738
 6946WAT      O34788   4.800   0.508   3.814
 6946WAT     H134789   4.777   0.483   3.725
 6946WAT     H234790   4.820   0.426   3.858
 6947WAT      O34791   2.384   2.376   2.198
 6947WAT     H134792   2.434   2.458   2.203
 6947WAT     H234793   2.319   2.384   2.267
 6948WAT      O34794   6.001   5.715   8.608
 6948WAT     H134795   6.087   5.753   8.587
 6948WAT     H234796   5.963   5.694   8.523
 6949WAT      O34797   2.322   3.624   1.179
 6949WAT     H134798   2.382   3.575   1.123
 6949WAT     H234799   2.289   3.559   1.241
 6950WAT      O34800   2.092   5.950  12.011
 6950WAT     H134801   2.100   5.893  12.088
 6950WAT     H234802   2.182   5.976  11.992
 6951WAT      O34803   3.382   2.037   8.987
 6951WAT     H134804   3.389   1.986   9.068
 6951WAT     H234805   3.318   2.105   9.008
 6952WAT      O34806   5.944   4.692   1.678
 6952WAT     H134807   5.908   4.746   1.748
 6952WAT     H234808   5.986   4.754   1.619
 6953WAT      O34809   0.889   0.958  12.124
 6953WAT     H134810   0.861   1.018  12.193
 6953WAT     H234811   0.925   0.883  12.172
 6954WAT      O34812   0.481   5.774   5.499
 6954WAT     H134813   0.548   5.714   5.465
 6954WAT     H234814   0.529   5.856   5.516
 6955WAT      O34815   4.881   2.301   0.527
 6955WAT     H134816   4.799   2.307   0.576
 6955WAT     H234817   4.926   2.384   0.543
 6956WAT      O34818   3.750   2.657   8.701
 6956WAT     H134819   3.782   2.573   8.668
 6956WAT     H234820   3.746   2.713   8.624
 6957WAT      O34821   5.687   2.839   3.083
 6957WAT     H134822   5.627   2.897   3.036
 6957WAT     H234823   5.775   2.868   3.057
 6958WAT      O34824   1.039   5.782   4.705
 6958WAT     H134825   0.991   5.740   4.776
 6958WAT     H234826   0.990   5.758   4.626
 6959WAT      O34827   4.314   3.661   9.102
 6959WAT     H134828   4.273   3.747   9.112
 6959WAT     H234829   4.333   3.632   9.191
 6960WAT      O34830   1.576   0.350   8.119
 6960WAT     H134831   1.650   0.384   8.070
 6960WAT     H234832   1.502   0.403   8.090
 6961WAT      O34833   3.076   2.667   8.340
 6961WAT     H134834   3.140   2.661   8.269
 6961WAT     H234835   3.001   2.616   8.308
 6962WAT      O34836   2.292   2.328  10.443
 6962WAT     H134837   2.307   2.421  10.424
 6962WAT     H234838   2.202   2.325  10.477
 6963WAT      O34839   5.334   0.940  10.434
 6963WAT     H134840   5.293   1.022  10.461
 6963WAT     H234841   5.379   0.962  10.352
 6964WAT      O34842   3.769   0.849   8.010
 6964WAT     H134843   3.676   0.843   7.988
 6964WAT     H234844   3.802   0.922   7.958
 6965WAT      O34845   3.981   3.456   3.130
 6965WAT     H134846   3.939   3.506   3.060
 6965WAT     H234847   3.975   3.512   3.207
 6966WAT      O34848   1.910   1.832   8.477
 6966WAT     H134849   1.867   1.758   8.435
 6966WAT     H234850   1.971   1.793   8.539
 6967WAT      O34851   1.506   4.963   9.743
 6967WAT     H134852   1.548   5.048   9.745
 6967WAT     H234853   1.462   4.960   9.658
 6968WAT      O34854   2.236   5.484   0.592
 6968WAT     H134855   2.305   5.515   0.651
 6968WAT     H234856   2.234   5.389   0.607
 6969WAT      O34857   5.581   6.004   8.252
 6969WAT     H134858   5.577   6.012   8.157
 6969WAT     H234859   5.551   6.090   8.284
 6970WAT      O34860   2.371   5.037   3.575
 6970WAT     H134861   2.432   5.023   3.503
 6970WAT     H234862   2.424   5.079   3.643
 6971WAT      O34863   4.524   3.060   3.297
 6971WAT     H134864   4.589   3.126   3.321
 6971WAT     H234865   4.440   3.098   3.325
 6972WAT      O34866   4.831   6.084  11.108
 6972WAT     H134867   4.775   6.132  11.168
 6972WAT     H234868   4.771   6.031  11.055
 6973WAT      O34869   6.140   4.613   8.650
 6973WAT     H134870   6.177   4.693   8.687
 6973WAT     H234871   6.128   4.555   8.725
 6974WAT      O34872   1.641   4.592   3.174
 6974WAT     H134873   1.604   4.565   3.090
 6974WAT     H234874   1.721   4.541   3.183
 6975WAT      O34875   1.734   2.579   9.926
 6975WAT     H134876   1.648   2.545   9.952
 6975WAT     H234877   1.738   2.666   9.965
 6976WAT      O34878   2.024   1.535  10.143
 6976WAT     H134879   2.120   1.539  10.139
 6976WAT     H234880   2.000   1.477  10.071
 6977WAT      O34881   3.495   2.165  10.642
 6977WAT     H134882   3.521   2.109  10.569
 6977WAT     H234883   3.407   2.195  10.618
 6978WAT      O34884   0.327   2.540   1.979
 6978WAT     H134885   0.249   2.579   2.018
 6978WAT     H234886   0.306   2.447   1.972
 6979WAT      O34887   4.505   3.785   9.796
 6979WAT     H134888   4.453   3.744   9.865
 6979WAT     H234889   4.588   3.738   9.797
 6980WAT      O34890   3.284   0.199   2.799
 6980WAT     H134891   3.254   0.178   2.888
 6980WAT     H234892   3.208   0.183   2.744
 6981WAT      O34893   0.961   6.014   8.921
 6981WAT     H134894   1.045   6.045   8.955
 6981WAT     H234895   0.925   6.090   8.875
 6982WAT      O34896   0.726   5.938   1.992
 6982WAT     H134897   0.718   5.845   2.015
 6982WAT     H234898   0.756   5.936   1.901
 6983WAT      O34899   5.367   2.363   7.436
 6983WAT     H134900   5.325   2.443   7.464
 6983WAT     H234901   5.296   2.299   7.430
 6984WAT      O34902   2.590   0.582   8.796
 6984WAT     H134903   2.576   0.489   8.780
 6984WAT     H234904   2.540   0.601   8.875
 6985WAT      O34905   0.561   0.564   1.192
 6985WAT     H134906   0.542   0.581   1.100
 6985WAT     H234907   0.477   0.539   1.230
 6986WAT      O34908   3.541   6.090   1.226
 6986WAT     H134909   3.453   6.053   1.224
 6986WAT     H234910   3.564   6.095   1.319
 6987WAT      O34911   2.998   1.283   1.556
 6987WAT     H134912   2.967   1.259   1.644
 6987WAT     H234913   2.941   1.235   1.497
 6988WAT      O34914   3.892   2.330   2.691
 6988WAT     H134915   3.894   2.418   2.654
 6988WAT     H234916   3.886   2.344   2.786
 6989WAT      O34917   1.756   3.869   8.818
 6989WAT     H134918   1.780   3.815   8.893
 6989WAT     H234919   1.838   3.908   8.789
 6990WAT      O34920   5.372   3.082   1.291
 6990WAT     H134921   5.365   3.177   1.299
 6990WAT     H234922   5.414   3.055   1.373
 6991WAT      O34923   4.202   3.894  10.042
 6991WAT     H134924   4.216   3.989  10.041
 6991WAT     H234925   4.113   3.883  10.007
 6992WAT      O34926   2.534   3.004   0.510
 6992WAT     H134927   2.572   2.918   0.529
 6992WAT     H234928   2.604   3.052   0.466
 6993WAT      O34929   3.088   0.964   8.970
 6993WAT     H134930   3.176   0.964   9.009
 6993WAT     H234931   3.096   1.017   8.891
 6994WAT      O34932   3.356   1.430   1.869
 6994WAT     H134933   3.274   1.435   1.919
 6994WAT     H234934   3.365   1.516   1.829
 6995WAT      O34935   5.890   1.268   3.204
 6995WAT     H134936   5.879   1.173   3.200
 6995WAT     H234937   5.983   1.282   3.183
 6996WAT      O34938   3.610   3.128  12.635
 6996WAT     H134939   3.572   3.202  12.588
 6996WAT     H234940   3.637   3.164  12.720
 6997WAT      O34941   4.660   2.854  11.545
 6997WAT     H134942   4.697   2.890  11.465
 6997WAT     H234943   4.567   2.876  11.541
 6998WAT      O34944   6.094   0.650   2.807
 6998WAT     H134945   6.059   0.566   2.777
 6998WAT     H234946   6.189   0.637   2.809
 6999WAT      O34947   5.370   0.049  10.881
 6999WAT     H134948   5.313   0.124  10.900
 6999WAT     H234949   5.458   0.085  10.882
 7000WAT      O34950   1.312   2.902   3.830
 7000WAT     H134951   1.287   2.912   3.922
 7000WAT     H234952   1.306   2.990   3.794
 7001WAT      O34953   1.679   1.658   0.372
 7001WAT     H134954   1.595   1.703   0.360
 7001WAT     H234955   1.735   1.693   0.302
 7002WAT      O34956   0.839   3.853   0.945
 7002WAT     H134957   0.810   3.801   0.870
 7002WAT     H234958   0.803   3.941   0.927
 7003WAT      O34959   5.328   2.803  12.038
 7003WAT     H134960   5.249   2.761  12.072
 7003WAT     H234961   5.393   2.733  12.035
 7004WAT      O34962   0.269   0.828   2.592
 7004WAT     H134963   0.327   0.768   2.640
 7004WAT     H234964   0.329   0.885   2.543
 7005WAT      O34965   1.591   3.425  11.433
 7005WAT     H134966   1.622   3.374  11.358
 7005WAT     H234967   1.581   3.514  11.398
 7006WAT      O34968   3.043   5.843   3.038
 7006WAT     H134969   3.048   5.936   3.018
 7006WAT     H234970   2.964   5.835   3.092
 7007WAT      O34971   4.250   2.675   1.513
 7007WAT     H134972   4.184   2.614   1.480
 7007WAT     H234973   4.331   2.624   1.514
 7008WAT      O34974   2.775   5.576   0.276
 7008WAT     H134975   2.851   5.629   0.251
 7008WAT     H234976   2.792   5.490   0.240
 7009WAT      O34977   2.777   4.007  12.003
 7009WAT     H134978   2.698   4.012  12.058
 7009WAT     H234979   2.752   3.949  11.931
 7010WAT      O34980   2.074   0.653   2.445
 7010WAT     H134981   2.139   0.695   2.502
 7010WAT     H234982   1.998   0.640   2.502
 7011WAT      O34983   3.087   1.208  10.895
 7011WAT     H134984   3.026   1.151  10.942
 7011WAT     H234985   3.170   1.160  10.896
 7012WAT      O34986   4.610   4.818  11.246
 7012WAT     H134987   4.692   4.852  11.209
 7012WAT     H234988   4.615   4.839  11.339
 7013WAT      O34989   5.467   1.717   8.304
 7013WAT     H134990   5.503   1.733   8.391
 7013WAT     H234991   5.437   1.625   8.307
 7014WAT      O34992   1.963   0.151   2.810
 7014WAT     H134993   2.012   0.217   2.860
 7014WAT     H234994   1.871   0.168   2.831
 7015WAT      O34995   3.620   5.056   3.722
 7015WAT     H134996   3.613   5.047   3.817
 7015WAT     H234997   3.713   5.074   3.706
 7016WAT      O34998   0.247   2.235   2.043
 7016WAT     H134999   0.199   2.200   1.968
 7016WAT     H235000   0.212   2.186   2.118
 7017WAT      O35001   2.417   0.428  12.598
 7017WAT     H135002   2.330   0.429  12.558
 7017WAT     H235003   2.445   0.519  12.598
 7018WAT      O35004   3.377   4.502   0.192
 7018WAT     H135005   3.284   4.519   0.207
 7018WAT     H235006   3.415   4.588   0.175
 7019WAT      O35007   6.185   4.347  10.208
 7019WAT     H135008   6.158   4.304  10.127
 7019WAT     H235009   6.242   4.418  10.181
 7020WAT      O35010   2.910   3.361   1.381
 7020WAT     H135011   2.928   3.344   1.473
 7020WAT     H235012   2.889   3.276   1.343
 7021WAT      O35013   2.827   1.628  10.584
 7021WAT     H135014   2.891   1.698  10.587
 7021WAT     H235015   2.867   1.556  10.633
 7022WAT      O35016   5.898   3.488   1.451
 7022WAT     H135017   5.904   3.401   1.490
 7022WAT     H235018   5.973   3.535   1.487
 7023WAT      O35019   4.734   3.036   8.312
 7023WAT     H135020   4.772   3.124   8.304
 7023WAT     H235021   4.650   3.043   8.267
 7024WAT      O35022   1.275   5.784  11.315
 7024WAT     H135023   1.227   5.793  11.397
 7024WAT     H235024   1.287   5.874  11.284
 7025WAT      O35025   0.163   0.048   1.041
 7025WAT     H135026   0.164   0.132   1.089
 7025WAT     H235027   0.089   0.057   0.981
 7026WAT      O35028   2.205   1.255   1.025
 7026WAT     H135029   2.176   1.218   1.108
 7026WAT     H235030   2.178   1.347   1.028
 7027WAT      O35031   2.182   2.775   0.616
 7027WAT     H135032   2.114   2.728   0.664
 7027WAT     H235033   2.135   2.818   0.545
 7028WAT      O35034   3.792   3.012  12.371
 7028WAT     H135035   3.787   3.102  12.340
 7028WAT     H235036   3.715   3.002  12.427
 7029WAT      O35037   0.618   4.402   1.333
 7029WAT     H135038   0.566   4.326   1.306
 7029WAT     H235039   0.709   4.376   1.318
 7030WAT      O35040   2.922   1.437   2.152
 7030WAT     H135041   2.867   1.515   2.155
 7030WAT     H235042   2.863   1.367   2.124
 7031WAT      O35043   1.237   2.274   9.232
 7031WAT     H135044   1.219   2.352   9.285
 7031WAT     H235045   1.305   2.227   9.280
 7032WAT      O35046   1.820   2.575   2.664
 7032WAT     H135047   1.750   2.527   2.619
 7032WAT     H235048   1.778   2.656   2.694
 7033WAT      O35049   3.429   0.236   7.517
 7033WAT     H135050   3.490   0.259   7.587
 7033WAT     H235051   3.406   0.320   7.476
 7034WAT      O35052   2.864   0.212   9.878
 7034WAT     H135053   2.770   0.197   9.867
 7034WAT     H235054   2.894   0.238   9.791
 7035WAT      O35055   5.284   3.319  12.335
 7035WAT     H135056   5.240   3.296  12.254
 7035WAT     H235057   5.300   3.236  12.379
 7036WAT      O35058   5.200   5.423   9.454
 7036WAT     H135059   5.292   5.442   9.472
 7036WAT     H235060   5.197   5.408   9.360
 7037WAT      O35061   0.923   0.441   3.878
 7037WAT     H135062   0.998   0.407   3.927
 7037WAT     H235063   0.913   0.531   3.910
 7038WAT      O35064   3.469   0.292  11.057
 7038WAT     H135065   3.430   0.379  11.054
 7038WAT     H235066   3.557   0.304  11.022
 7039WAT      O35067   1.143   2.660   0.423
 7039WAT     H135068   1.127   2.594   0.355
 7039WAT     H235069   1.073   2.646   0.487
 7040WAT      O35070   2.334   0.844   9.004
 7040WAT     H135071   2.293   0.822   8.920
 7040WAT     H235072   2.383   0.765   9.028
 7041WAT      O35073   0.586   5.190  10.372
 7041WAT     H135074   0.512   5.145  10.414
 7041WAT     H235075   0.644   5.119  10.345
 7042WAT      O35076   4.657   5.133   2.786
 7042WAT     H135077   4.620   5.062   2.733
 7042WAT     H235078   4.717   5.178   2.726
 7043WAT      O35079   3.540   3.566   4.764
 7043WAT     H135080   3.549   3.487   4.711
 7043WAT     H235081   3.494   3.537   4.843
 7044WAT      O35082   6.145   1.230  12.546
 7044WAT     H135083   6.142   1.326  12.544
 7044WAT     H235084   6.147   1.204  12.454
 7045WAT      O35085   0.895   4.891   8.266
 7045WAT     H135086   0.909   4.911   8.358
 7045WAT     H235087   0.983   4.890   8.228
 7046WAT      O35088   5.257   2.555  10.872
 7046WAT     H135089   5.249   2.557  10.776
 7046WAT     H235090   5.188   2.495  10.900
 7047WAT      O35091   4.163   1.985   7.528
 7047WAT     H135092   4.179   2.060   7.471
 7047WAT     H235093   4.166   2.021   7.617
 7048WAT      O35094   5.242   3.796  11.114
 7048WAT     H135095   5.159   3.794  11.163
 7048WAT     H235096   5.231   3.869  11.053
 7049WAT      O35097   1.144   1.456  10.121
 7049WAT     H135098   1.144   1.370  10.164
 7049WAT     H235099   1.220   1.501  10.159
 7050WAT      O35100   4.666   3.009  11.295
 7050WAT     H135101   4.636   3.094  11.327
 7050WAT     H235102   4.602   2.985  11.228
 7051WAT      O35103   0.975   3.818   2.745
 7051WAT     H135104   1.043   3.798   2.680
 7051WAT     H235105   1.015   3.883   2.803
 7052WAT      O35106   0.321   3.782  11.692
 7052WAT     H135107   0.252   3.716  11.692
 7052WAT     H235108   0.398   3.735  11.658
 7053WAT      O35109   5.806   3.145   3.343
 7053WAT     H135110   5.855   3.201   3.283
 7053WAT     H235111   5.868   3.121   3.411
 7054WAT      O35112   2.413   6.167   3.555
 7054WAT     H135113   2.474   6.109   3.601
 7054WAT     H235114   2.352   6.107   3.512
 7055WAT      O35115   3.790   1.680   2.979
 7055WAT     H135116   3.759   1.745   2.916
 7055WAT     H235117   3.748   1.598   2.952
 7056WAT      O35118   5.376   4.139  12.572
 7056WAT     H135119   5.300   4.186  12.537
 7056WAT     H235120   5.451   4.183  12.532
 7057WAT      O35121   5.344   2.896   3.947
 7057WAT     H135122   5.290   2.925   3.873
 7057WAT     H235123   5.316   2.951   4.020
 7058WAT      O35124   1.609   0.517   2.713
 7058WAT     H135125   1.544   0.447   2.724
 7058WAT     H235126   1.582   0.563   2.634
 7059WAT      O35127   5.444   0.733   8.833
 7059WAT     H135128   5.361   0.751   8.789
 7059WAT     H235129   5.496   0.687   8.768
 7060WAT      O35130   2.099   4.556   8.596
 7060WAT     H135131   2.187   4.544   8.561
 7060WAT     H235132   2.110   4.623   8.664
 7061WAT      O35133   4.405   6.219   7.424
 7061WAT     H135134   4.396   6.149   7.488
 7061WAT     H235135   4.488   6.261   7.447
 7062WAT      O35136   2.596   4.990   9.548
 7062WAT     H135137   2.585   4.967   9.455
 7062WAT     H235138   2.513   4.965   9.589
 7063WAT      O35139   5.223   2.879  11.487
 7063WAT     H135140   5.230   2.932  11.408
 7063WAT     H235141   5.218   2.943  11.558
 7064WAT      O35142   1.557   2.251   9.039
 7064WAT     H135143   1.590   2.336   9.069
 7064WAT     H235144   1.584   2.246   8.947
 7065WAT      O35145   3.529   3.278   5.143
 7065WAT     H135146   3.536   3.236   5.057
 7065WAT     H235147   3.439   3.311   5.146
 7066WAT      O35148   3.135   5.236  10.070
 7066WAT     H135149   3.129   5.283  10.154
 7066WAT     H235150   3.054   5.186  10.065
 7067WAT      O35151   5.749   3.804   0.289
 7067WAT     H135152   5.800   3.849   0.221
 7067WAT     H235153   5.684   3.753   0.241
 7068WAT      O35154   4.843   3.375   8.461
 7068WAT     H135155   4.790   3.455   8.465
 7068WAT     H235156   4.869   3.368   8.369
 7069WAT      O35157   2.522   3.733  10.705
 7069WAT     H135158   2.541   3.817  10.662
 7069WAT     H235159   2.573   3.736  10.786
 7070WAT      O35160   5.471   1.299   0.271
 7070WAT     H135161   5.471   1.284   0.177
 7070WAT     H235162   5.383   1.333   0.290
 7071WAT      O35163   4.803   3.879   3.948
 7071WAT     H135164   4.833   3.864   3.858
 7071WAT     H235165   4.725   3.934   3.938
 7072WAT      O35166   0.429   2.299  12.469
 7072WAT     H135167   0.426   2.215  12.423
 7072WAT     H235168   0.351   2.298  12.525
 7073WAT      O35169   0.206   4.741   2.483
 7073WAT     H135170   0.162   4.689   2.550
 7073WAT     H235171   0.251   4.810   2.533
 7074WAT      O35172   3.526   5.885   9.294
 7074WAT     H135173   3.581   5.808   9.308
 7074WAT     H235174   3.559   5.950   9.354
 7075WAT      O35175   0.572   6.092  11.779
 7075WAT     H135176   0.605   6.138  11.856
 7075WAT     H235177   0.479   6.112  11.776
 7076WAT      O35178   0.987   3.773   4.821
 7076WAT     H135179   0.935   3.845   4.856
 7076WAT     H235180   0.994   3.711   4.893
 7077WAT      O35181   5.458   0.806   1.770
 7077WAT     H135182   5.410   0.788   1.689
 7077WAT     H235183   5.393   0.844   1.828
 7078WAT      O35184   6.153   3.407   2.960
 7078WAT     H135185   6.124   3.339   2.899
 7078WAT     H235186   6.146   3.367   3.046
 7079WAT      O35187   3.646   4.622  12.494
 7079WAT     H135188   3.621   4.558  12.426
 7079WAT     H235189   3.705   4.574  12.552
 7080WAT      O35190   3.505   3.448   8.047
 7080WAT     H135191   3.426   3.470   8.098
 7080WAT     H235192   3.547   3.532   8.030
 7081WAT      O35193   0.735   2.573   1.984
 7081WAT     H135194   0.652   2.600   1.945
 7081WAT     H235195   0.720   2.579   2.078
 7082WAT      O35196   6.160   5.802   9.250
 7082WAT     H135197   6.214   5.850   9.188
 7082WAT     H235198   6.076   5.846   9.249
 7083WAT      O35199   6.241   2.929  11.083
 7083WAT     H135200   6.149   2.929  11.056
 7083WAT     H235201   6.240   2.907  11.176
 7084WAT      O35202   1.023   1.259   1.583
 7084WAT     H135203   1.001   1.347   1.612
 7084WAT     H235204   0.940   1.221   1.555
 7085WAT      O35205   4.884   2.372   2.808
 7085WAT     H135206   4.912   2.352   2.898
 7085WAT     H235207   4.802   2.419   2.818
 7086WAT      O35208   0.190   1.448  11.501
 7086WAT     H135209   0.245   1.456  11.423
 7086WAT     H235210   0.106   1.416  11.467
 7087WAT      O35211   2.870   0.136  11.177
 7087WAT     H135212   2.954   0.170  11.207
 7087WAT     H235213   2.805   0.180  11.233
 7088WAT      O35214   1.044   0.750   8.365
 7088WAT     H135215   1.007   0.817   8.307
 7088WAT     H235216   1.125   0.789   8.397
 7089WAT      O35217   0.606   1.628  10.623
 7089WAT     H135218   0.552   1.694  10.580
 7089WAT     H235219   0.638   1.574  10.551
 7090WAT      O35220   3.386   4.559  12.235
 7090WAT     H135221   3.331   4.540  12.311
 7090WAT     H235222   3.375   4.654  12.222
 7091WAT      O35223   6.100   1.379   8.170
 7091WAT     H135224   6.046   1.431   8.111
 7091WAT     H235225   6.169   1.439   8.198
 7092WAT      O35226   3.084   2.937   9.956
 7092WAT     H135227   3.056   2.976  10.039
 7092WAT     H235228   3.179   2.938   9.960
 7093WAT      O35229   0.196   5.322   1.773
 7093WAT     H135230   0.181   5.246   1.828
 7093WAT     H235231   0.149   5.302   1.692
 7094WAT      O35232   1.924   0.569   8.170
 7094WAT     H135233   1.954   0.479   8.175
 7094WAT     H235234   1.997   0.620   8.206
 7095WAT      O35235   4.547   4.669   7.906
 7095WAT     H135236   4.630   4.686   7.860
 7095WAT     H235237   4.504   4.754   7.910
 7096WAT      O35238   1.233   2.441   1.957
 7096WAT     H135239   1.224   2.364   2.013
 7096WAT     H235240   1.328   2.452   1.946
 7097WAT      O35241   1.390   3.246   2.580
 7097WAT     H135242   1.406   3.153   2.565
 7097WAT     H235243   1.477   3.282   2.600
 7098WAT      O35244   3.089   4.879   4.298
 7098WAT     H135245   3.051   4.957   4.258
 7098WAT     H235246   3.134   4.912   4.376
 7099WAT      O35247   1.148   5.465   2.894
 7099WAT     H135248   1.174   5.447   2.984
 7099WAT     H235249   1.125   5.379   2.858
 7100WAT      O35250   1.205   4.820  10.215
 7100WAT     H135251   1.248   4.905  10.207
 7100WAT     H235252   1.186   4.812  10.308
 7101WAT      O35253   0.152   1.459   7.927
 7101WAT     H135254   0.232   1.512   7.928
 7101WAT     H235255   0.082   1.521   7.908
 7102WAT      O35256   0.666   5.130   2.008
 7102WAT     H135257   0.743   5.084   2.040
 7102WAT     H235258   0.610   5.139   2.085
 7103WAT      O35259   0.176   5.310  10.590
 7103WAT     H135260   0.089   5.272  10.576
 7103WAT     H235261   0.220   5.247  10.648
 7104WAT      O35262   4.719   5.263   0.694
 7104WAT     H135263   4.629   5.284   0.718
 7104WAT     H235264   4.766   5.258   0.777
 7105WAT      O35265   3.990   5.839   9.079
 7105WAT     H135266   3.989   5.902   9.151
 7105WAT     H235267   4.083   5.816   9.070
 7106WAT      O35268   4.342   4.271  12.496
 7106WAT     H135269   4.416   4.294  12.552
 7106WAT     H235270   4.280   4.229  12.555
 7107WAT      O35271   5.187   4.351  12.540
 7107WAT     H135272   5.139   4.317  12.464
 7107WAT     H235273   5.241   4.422  12.504
 7108WAT      O35274   2.705   2.981   9.998
 7108WAT     H135275   2.706   3.074  10.021
 7108WAT     H235276   2.637   2.973   9.931
 7109WAT      O35277   0.930   0.741  10.878
 7109WAT     H135278   0.993   0.780  10.938
 7109WAT     H235279   0.982   0.690  10.817
 7110WAT      O35280   5.625   4.980   3.040
 7110WAT     H135281   5.635   4.966   3.134
 7110WAT     H235282   5.551   4.925   3.014
 7111WAT      O35283   4.359   5.450   7.929
 7111WAT     H135284   4.386   5.495   7.849
 7111WAT     H235285   4.422   5.479   7.995
 7112WAT      O35286   4.101   1.609  11.965
 7112WAT     H135287   4.043   1.595  12.039
 7112WAT     H235288   4.122   1.521  11.933
 7113WAT      O35289   1.054   5.907  10.909
 7113WAT     H135290   1.005   5.980  10.946
 7113WAT     H235291   1.045   5.918  10.814
 7114WAT      O35292   2.718   3.096   9.075
 7114WAT     H135293   2.697   3.046   8.996
 7114WAT     H235294   2.708   3.188   9.048
 7115WAT      O35295   3.426   0.582  10.814
 7115WAT     H135296   3.467   0.583  10.901
 7115WAT     H235297   3.413   0.674  10.793
 7116WAT      O35298   3.868   0.143   2.176
 7116WAT     H135299   3.949   0.191   2.195
 7116WAT     H235300   3.890   0.089   2.100
 7117WAT      O35301   0.503   0.878   1.787
 7117WAT     H135302   0.428   0.825   1.814
 7117WAT     H235303   0.465   0.950   1.736
 7118WAT      O35304   0.750   0.204   0.098
 7118WAT     H135305   0.772   0.245   0.014
 7118WAT     H235306   0.682   0.260   0.135
 7119WAT      O35307   0.399   5.355   1.250
 7119WAT     H135308   0.453   5.399   1.316
 7119WAT     H235309   0.462   5.312   1.192
 7120WAT      O35310   1.109   6.164   4.855
 7120WAT     H135311   1.041   6.140   4.792
 7120WAT     H235312   1.183   6.107   4.833
 7121WAT      O35313   5.401   4.223  10.192
 7121WAT     H135314   5.379   4.285  10.123
 7121WAT     H235315   5.496   4.229  10.202
 7122WAT      O35316   5.508   2.736   2.514
 7122WAT     H135317   5.526   2.786   2.593
 7122WAT     H235318   5.455   2.662   2.543
 7123WAT      O35319   3.433   4.943  10.674
 7123WAT     H135320   3.443   4.850  10.697
 7123WAT     H235321   3.461   4.990  10.752
 7124WAT      O35322   2.035   0.984  10.868
 7124WAT     H135323   1.954   0.990  10.818
 7124WAT     H235324   2.037   1.065  10.919
 7125WAT      O35325   4.095   0.797   9.398
 7125WAT     H135326   4.173   0.741   9.403
 7125WAT     H235327   4.021   0.737   9.406
 7126WAT      O35328   0.704   2.347   1.821
 7126WAT     H135329   0.706   2.422   1.880
 7126WAT     H235330   0.796   2.320   1.813
 7127WAT      O35331   0.569   0.252  11.797
 7127WAT     H135332   0.588   0.217  11.710
 7127WAT     H235333   0.614   0.192  11.857
 7128WAT      O35334   0.336   2.304   2.691
 7128WAT     H135335   0.294   2.390   2.686
 7128WAT     H235336   0.424   2.322   2.724
 7129WAT      O35337   0.040   5.115   9.768
 7129WAT     H135338   0.128   5.078   9.766
 7129WAT     H235339   0.007   5.102   9.679
 7130WAT      O35340   4.760   3.590   2.568
 7130WAT     H135341   4.781   3.526   2.636
 7130WAT     H235342   4.845   3.624   2.540
 7131WAT      O35343   5.153   6.206  10.561
 7131WAT     H135344   5.058   6.197  10.573
 7131WAT     H235345   5.172   6.151  10.485
 7132WAT      O35346   0.348   6.138  12.154
 7132WAT     H135347   0.273   6.195  12.168
 7132WAT     H235348   0.406   6.187  12.095
 7133WAT      O35349   2.552   3.120   4.598
 7133WAT     H135350   2.557   3.206   4.558
 7133WAT     H235351   2.459   3.107   4.616
 7134WAT      O35352   1.501   4.596  12.650
 7134WAT     H135353   1.438   4.661  12.683
 7134WAT     H235354   1.447   4.521  12.625
 7135WAT      O35355   3.812   4.386   8.859
 7135WAT     H135356   3.758   4.310   8.879
 7135WAT     H235357   3.858   4.406   8.940
 7136WAT      O35358   5.240   3.373   2.597
 7136WAT     H135359   5.336   3.372   2.587
 7136WAT     H235360   5.210   3.300   2.543
 7137WAT      O35361   0.871   1.440  10.139
 7137WAT     H135362   0.846   1.348  10.146
 7137WAT     H235363   0.964   1.438  10.117
 7138WAT      O35364   4.868   2.900   1.355
 7138WAT     H135365   4.857   2.860   1.441
 7138WAT     H235366   4.784   2.943   1.337
 7139WAT      O35367   4.525   1.220   2.609
 7139WAT     H135368   4.560   1.309   2.599
 7139WAT     H235369   4.566   1.170   2.539
 7140WAT      O35370   2.466   6.032   2.841
 7140WAT     H135371   2.412   6.111   2.845
 7140WAT     H235372   2.504   6.033   2.753
 7141WAT      O35373   1.329   1.744   0.327
 7141WAT     H135374   1.374   1.801   0.390
 7141WAT     H235375   1.292   1.674   0.381
 7142WAT      O35376   3.578   1.728   0.896
 7142WAT     H135377   3.630   1.719   0.976
 7142WAT     H235378   3.628   1.788   0.842
 7143WAT      O35379   5.041   4.644   3.116
 7143WAT     H135380   4.999   4.619   3.034
 7143WAT     H235381   4.969   4.650   3.179
 7144WAT      O35382   0.985   3.977   1.851
 7144WAT     H135383   0.971   3.882   1.846
 7144WAT     H235384   0.898   4.013   1.867
 7145WAT      O35385   0.500   1.068  10.176
 7145WAT     H135386   0.512   1.159  10.149
 7145WAT     H235387   0.422   1.070  10.231
 7146WAT      O35388   3.323   0.437  12.139
 7146WAT     H135389   3.312   0.480  12.224
 7146WAT     H235390   3.337   0.345  12.160
 7147WAT      O35391   0.943   5.295   3.161
 7147WAT     H135392   0.899   5.233   3.102
 7147WAT     H235393   1.034   5.298   3.129
 7148WAT      O35394   4.155   5.521   1.723
 7148WAT     H135395   4.185   5.432   1.743
 7148WAT     H235396   4.217   5.578   1.769
 7149WAT      O35397   3.320   0.745   1.514
 7149WAT     H135398   3.296   0.748   1.606
 7149WAT     H235399   3.377   0.669   1.506
 7150WAT      O35400   3.040   5.877   1.301
 7150WAT     H135401   2.955   5.883   1.344
 7150WAT     H235402   3.085   5.959   1.323
 7151WAT      O35403   2.771   2.178   1.318
 7151WAT     H135404   2.706   2.132   1.265
 7151WAT     H235405   2.835   2.111   1.342
 7152WAT      O35406   5.694   0.867   1.943
 7152WAT     H135407   5.671   0.844   1.853
 7152WAT     H235408   5.685   0.785   1.992
 7153WAT      O35409   3.634   2.246   4.412
 7153WAT     H135410   3.611   2.201   4.493
 7153WAT     H235411   3.605   2.336   4.426
 7154WAT      O35412   3.169   0.230   2.479
 7154WAT     H135413   3.179   0.135   2.485
 7154WAT     H235414   3.145   0.247   2.388
 7155WAT      O35415   4.177   2.799   8.292
 7155WAT     H135416   4.149   2.736   8.358
 7155WAT     H235417   4.259   2.834   8.326
 7156WAT      O35418   2.385   0.721  11.456
 7156WAT     H135419   2.390   0.731  11.551
 7156WAT     H235420   2.436   0.793  11.421
 7157WAT      O35421   4.502   1.152   2.869
 7157WAT     H135422   4.489   1.218   2.937
 7157WAT     H235423   4.505   1.202   2.787
 7158WAT      O35424   1.536   2.676   2.446
 7158WAT     H135425   1.577   2.741   2.389
 7158WAT     H235426   1.456   2.650   2.401
 7159WAT      O35427   5.129   5.987   9.442
 7159WAT     H135428   5.180   6.067   9.452
 7159WAT     H235429   5.132   5.946   9.529
 7160WAT      O35430   0.839   3.005   2.989
 7160WAT     H135431   0.802   2.972   2.907
 7160WAT     H235432   0.884   3.086   2.963
 7161WAT      O35433   0.519   2.328   4.232
 7161WAT     H135434   0.434   2.285   4.241
 7161WAT     H235435   0.513   2.405   4.289
 7162WAT      O35436   1.514   1.685   2.920
 7162WAT     H135437   1.576   1.655   2.854
 7162WAT     H235438   1.527   1.780   2.925
 7163WAT      O35439   1.861   2.433   9.394
 7163WAT     H135440   1.840   2.395   9.308
 7163WAT     H235441   1.846   2.527   9.383
 7164WAT      O35442   3.143   0.495   2.170
 7164WAT     H135443   3.159   0.400   2.166
 7164WAT     H235444   3.052   0.505   2.143
 7165WAT      O35445   3.812   2.926  11.060
 7165WAT     H135446   3.731   2.942  11.109
 7165WAT     H235447   3.868   3.001  11.079
 7166WAT      O35448   0.600   1.585  12.079
 7166WAT     H135449   0.624   1.551  11.992
 7166WAT     H235450   0.642   1.525  12.140
 7167WAT      O35451   4.316   5.574   2.703
 7167WAT     H135452   4.402   5.536   2.685
 7167WAT     H235453   4.286   5.528   2.782
 7168WAT      O35454   1.712   2.851   1.138
 7168WAT     H135455   1.626   2.808   1.143
 7168WAT     H235456   1.736   2.866   1.230
 7169WAT      O35457   4.273   3.927   9.404
 7169WAT     H135458   4.190   3.879   9.399
 7169WAT     H235459   4.298   3.921   9.496
 7170WAT      O35460   0.268   4.612  10.485
 7170WAT     H135461   0.284   4.669  10.410
 7170WAT     H235462   0.201   4.550  10.455
 7171WAT      O35463   2.545   0.633  11.028
 7171WAT     H135464   2.469   0.648  11.085
 7171WAT     H235465   2.530   0.690  10.953
 7172WAT      O35466   1.523   4.883   4.190
 7172WAT     H135467   1.483   4.807   4.233
 7172WAT     H235468   1.449   4.938   4.165
 7173WAT      O35469   5.544   3.406  12.151
 7173WAT     H135470   5.543   3.389  12.246
 7173WAT     H235471   5.519   3.498  12.143
 7174WAT      O35472   1.553   0.141   0.812
 7174WAT     H135473   1.567   0.236   0.813
 7174WAT     H235474   1.617   0.108   0.749
 7175WAT      O35475   1.589   5.422   3.122
 7175WAT     H135476   1.610   5.504   3.167
 7175WAT     H235477   1.567   5.449   3.033
 7176WAT      O35478   0.759   2.447  11.213
 7176WAT     H135479   0.809   2.442  11.132
 7176WAT     H235480   0.690   2.380  11.203
 7177WAT      O35481   3.112   0.944   0.357
 7177WAT     H135482   3.111   1.023   0.411
 7177WAT     H235483   3.083   0.875   0.415
 7178WAT      O35484   4.003   2.057   1.281
 7178WAT     H135485   3.943   1.984   1.268
 7178WAT     H235486   3.951   2.135   1.262
 7179WAT      O35487   3.911   3.460   0.876
 7179WAT     H135488   3.974   3.517   0.831
 7179WAT     H235489   3.863   3.418   0.804
 7180WAT      O35490   4.783   4.942  11.491
 7180WAT     H135491   4.748   5.019  11.536
 7180WAT     H235492   4.759   4.869  11.548
 7181WAT      O35493   2.205   5.628   0.890
 7181WAT     H135494   2.217   5.533   0.882
 7181WAT     H235495   2.149   5.651   0.815
 7182WAT      O35496   3.017   1.768  11.656
 7182WAT     H135497   2.938   1.823  11.655
 7182WAT     H235498   2.985   1.681  11.680
 7183WAT      O35499   1.900   3.806  10.599
 7183WAT     H135500   1.980   3.836  10.643
 7183WAT     H235501   1.906   3.710  10.604
 7184WAT      O35502   1.388   4.618   2.382
 7184WAT     H135503   1.429   4.558   2.320
 7184WAT     H235504   1.409   4.582   2.468
 7185WAT      O35505   6.144   2.753   0.280
 7185WAT     H135506   6.220   2.698   0.259
 7185WAT     H235507   6.076   2.723   0.219
 7186WAT      O35508   1.603   3.000   1.432
 7186WAT     H135509   1.552   3.077   1.457
 7186WAT     H235510   1.685   3.036   1.397
 7187WAT      O35511   2.790   1.919  -0.019
 7187WAT     H135512   2.750   1.836  -0.045
 7187WAT     H235513   2.754   1.937   0.068
 7188WAT      O35514   1.992   5.129   3.996
 7188WAT     H135515   1.906   5.127   4.038
 7188WAT     H235516   1.975   5.109   3.904
 7189WAT      O35517   3.191   5.327   9.766
 7189WAT     H135518   3.106   5.284   9.759
 7189WAT     H235519   3.244   5.287   9.697
 7190WAT      O35520   3.959   1.168   0.991
 7190WAT     H135521   4.043   1.144   1.029
 7190WAT     H235522   3.894   1.141   1.056
 7191WAT      O35523   5.265   3.722   2.541
 7191WAT     H135524   5.175   3.689   2.542
 7191WAT     H235525   5.315   3.654   2.496
 7192WAT      O35526   4.297   0.760  11.777
 7192WAT     H135527   4.372   0.785  11.723
 7192WAT     H235528   4.336   0.723  11.856
 7193WAT      O35529   3.309   1.488   3.046
 7193WAT     H135530   3.363   1.522   3.117
 7193WAT     H235531   3.276   1.566   3.001
 7194WAT      O35532   1.946   5.774   1.140
 7194WAT     H135533   1.986   5.850   1.182
 7194WAT     H235534   1.853   5.798   1.131
 7195WAT      O35535   3.162   5.639  11.215
 7195WAT     H135536   3.168   5.732  11.239
 7195WAT     H235537   3.074   5.630  11.178
 7196WAT      O35538   3.109   1.677  12.154
 7196WAT     H135539   3.068   1.764  12.149
 7196WAT     H235540   3.188   1.685  12.102
 7197WAT      O35541   3.740   0.392   3.271
 7197WAT     H135542   3.725   0.486   3.269
 7197WAT     H235543   3.653   0.354   3.279
 7198WAT      O35544   4.853   3.192  11.613
 7198WAT     H135545   4.827   3.233  11.696
 7198WAT     H235546   4.895   3.262  11.564
 7199WAT      O35547   6.009   4.045   9.057
 7199WAT     H135548   6.038   4.121   9.006
 7199WAT     H235549   5.925   4.021   9.019
 7200WAT      O35550   5.981   1.065   0.037
 7200WAT     H135551   6.010   1.148   0.000
 7200WAT     H235552   6.037   0.999  -0.005
 7201WAT      O35553   2.153   3.110   9.773
 7201WAT     H135554   2.127   3.067   9.692
 7201WAT     H235555   2.247   3.121   9.766
 7202WAT      O35556   5.261   3.102   2.878
 7202WAT     H135557   5.334   3.096   2.940
 7202WAT     H235558   5.268   3.022   2.825
 7203WAT      O35559   5.225   0.090   3.409
 7203WAT     H135560   5.145   0.132   3.438
 7203WAT     H235561   5.244   0.025   3.477
 7204WAT      O35562   3.812   4.467  10.505
 7204WAT     H135563   3.736   4.505  10.461
 7204WAT     H235564   3.843   4.399  10.446
 7205WAT      O35565   4.677   1.792   1.816
 7205WAT     H135566   4.773   1.784   1.817
 7205WAT     H235567   4.659   1.865   1.875
 7206WAT      O35568   2.897   3.961   0.180
 7206WAT     H135569   2.866   3.901   0.113
 7206WAT     H235570   2.940   3.905   0.245
 7207WAT      O35571   0.040   5.784   8.581
 7207WAT     H135572   0.074   5.828   8.503
 7207WAT     H235573   0.069   5.839   8.654
 7208WAT      O35574   5.908   4.948   7.614
 7208WAT     H135575   5.998   4.981   7.618
 7208WAT     H235576   5.861   4.999   7.680
 7209WAT      O35577   3.681   5.759   9.771
 7209WAT     H135578   3.641   5.678   9.740
 7209WAT     H235579   3.644   5.772   9.858
 7210WAT      O35580   5.450   0.520  11.312
 7210WAT     H135581   5.381   0.484  11.257
 7210WAT     H235582   5.418   0.607  11.337
 7211WAT      O35583   3.793   3.309   5.106
 7211WAT     H135584   3.776   3.333   5.014
 7211WAT     H235585   3.706   3.302   5.145
 7212WAT      O35586   4.701   0.371   8.165
 7212WAT     H135587   4.663   0.456   8.141
 7212WAT     H235588   4.754   0.347   8.089
 7213WAT      O35589   2.735   1.403   4.663
 7213WAT     H135590   2.729   1.414   4.568
 7213WAT     H235591   2.768   1.314   4.675
 7214WAT      O35592   3.069   3.756  10.884
 7214WAT     H135593   3.097   3.733  10.972
 7214WAT     H235594   2.984   3.800  10.896
 7215WAT      O35595   5.882   3.797   3.812
 7215WAT     H135596   5.974   3.771   3.806
 7215WAT     H235597   5.849   3.749   3.888
 7216WAT      O35598   2.452   5.655   2.401
 7216WAT     H135599   2.500   5.575   2.419
 7216WAT     H235600   2.517   5.725   2.411
 7217WAT      O35601   6.000   2.918   1.636
 7217WAT     H135602   5.973   2.996   1.588
 7217WAT     H235603   5.934   2.853   1.615
 7218WAT      O35604   3.453   5.415  10.581
 7218WAT     H135605   3.419   5.351  10.644
 7218WAT     H235606   3.421   5.385  10.496
 7219WAT      O35607   4.926   2.507   9.295
 7219WAT     H135608   4.892   2.519   9.206
 7219WAT     H235609   4.848   2.501   9.350
 7220WAT      O35610   5.882   4.696   3.635
 7220WAT     H135611   5.866   4.789   3.619
 7220WAT     H235612   5.800   4.653   3.613
 7221WAT      O35613   1.807   2.370   7.930
 7221WAT     H135614   1.803   2.380   8.025
 7221WAT     H235615   1.850   2.450   7.899
 7222WAT      O35616   5.526   5.547  11.997
 7222WAT     H135617   5.582   5.583  12.067
 7222WAT     H235618   5.481   5.473  12.038
 7223WAT      O35619   4.659   4.997  12.263
 7223WAT     H135620   4.703   5.031  12.186
 7223WAT     H235621   4.621   5.074  12.305
 7224WAT      O35622   5.949   5.844  10.456
 7224WAT     H135623   6.043   5.830  10.445
 7224WAT     H235624   5.910   5.816  10.373
 7225WAT      O35625   4.283   2.466   7.699
 7225WAT     H135626   4.307   2.400   7.763
 7225WAT     H235627   4.353   2.531   7.705
 7226WAT      O35628   0.540   2.779   3.716
 7226WAT     H135629   0.582   2.806   3.798
 7226WAT     H235630   0.462   2.731   3.745
 7227WAT      O35631   5.315   4.106  11.928
 7227WAT     H135632   5.343   4.056  11.852
 7227WAT     H235633   5.314   4.197  11.898
 7228WAT      O35634   3.180   2.835   4.610
 7228WAT     H135635   3.232   2.759   4.586
 7228WAT     H235636   3.242   2.908   4.608
 7229WAT      O35637   5.208   3.824   2.003
 7229WAT     H135638   5.115   3.803   1.998
 7229WAT     H235639   5.216   3.909   1.960
 7230WAT      O35640   1.882   5.245   2.802
 7230WAT     H135641   1.803   5.280   2.761
 7230WAT     H235642   1.954   5.281   2.751
 7231WAT      O35643   5.084   3.078   8.180
 7231WAT     H135644   5.061   2.985   8.177
 7231WAT     H235645   5.134   3.093   8.100
 7232WAT      O35646   0.812   6.120  10.334
 7232WAT     H135647   0.763   6.142  10.255
 7232WAT     H235648   0.784   6.031  10.356
 7233WAT      O35649   5.766   1.032   3.453
 7233WAT     H135650   5.785   0.939   3.440
 7233WAT     H235651   5.757   1.067   3.364
 7234WAT      O35652   4.954   4.303   2.585
 7234WAT     H135653   5.032   4.329   2.536
 7234WAT     H235654   4.898   4.261   2.519
 7235WAT      O35655   1.616   3.721   1.584
 7235WAT     H135656   1.689   3.687   1.636
 7235WAT     H235657   1.638   3.813   1.570
 7236WAT      O35658   5.130   5.346  12.171
 7236WAT     H135659   5.109   5.281  12.238
 7236WAT     H235660   5.045   5.385  12.149
 7237WAT      O35661   1.027   4.425  11.086
 7237WAT     H135662   1.005   4.460  11.173
 7237WAT     H235663   0.961   4.357  11.070
 7238WAT      O35664   4.423   2.618   4.356
 7238WAT     H135665   4.405   2.539   4.406
 7238WAT     H235666   4.409   2.592   4.265
 7239WAT      O35667   1.208   1.986   9.432
 7239WAT     H135668   1.149   1.914   9.454
 7239WAT     H235669   1.272   1.986   9.503
 7240WAT      O35670   5.427   0.253   0.163
 7240WAT     H135671   5.408   0.259   0.257
 7240WAT     H235672   5.345   0.222   0.124
 7241WAT      O35673   0.900   0.145   0.579
 7241WAT     H135674   0.824   0.149   0.522
 7241WAT     H235675   0.924   0.236   0.594
 7242WAT      O35676   0.211   5.575   1.876
 7242WAT     H135677   0.214   5.486   1.840
 7242WAT     H235678   0.281   5.621   1.829
 7243WAT      O35679   2.257   2.163   3.400
 7243WAT     H135680   2.185   2.163   3.463
 7243WAT     H235681   2.241   2.087   3.345
 7244WAT      O35682   2.516   1.539   2.346
 7244WAT     H135683   2.520   1.480   2.270
 7244WAT     H235684   2.602   1.530   2.387
 7245WAT      O35685   2.686   4.584  11.583
 7245WAT     H135686   2.746   4.574  11.509
 7245WAT     H235687   2.721   4.527  11.651
 7246WAT      O35688   5.676   4.433  11.920
 7246WAT     H135689   5.770   4.413  11.912
 7246WAT     H235690   5.669   4.484  12.000
 7247WAT      O35691   4.683   1.720  11.992
 7247WAT     H135692   4.662   1.801  11.945
 7247WAT     H235693   4.779   1.715  11.989
 7248WAT      O35694   3.415   4.903   8.136
 7248WAT     H135695   3.492   4.846   8.145
 7248WAT     H235696   3.342   4.847   8.161
 7249WAT      O35697   1.242   0.594   9.123
 7249WAT     H135698   1.293   0.535   9.178
 7249WAT     H235699   1.291   0.598   9.041
 7250WAT      O35700   2.389   3.133   8.505
 7250WAT     H135701   2.353   3.210   8.460
 7250WAT     H235702   2.426   3.080   8.435
 7251WAT      O35703   2.767   2.336  12.369
 7251WAT     H135704   2.673   2.330  12.380
 7251WAT     H235705   2.793   2.411  12.422
 7252WAT      O35706   0.044   5.185   9.171
 7252WAT     H135707   0.080   5.110   9.125
 7252WAT     H235708   0.012   5.243   9.101
 7253WAT      O35709   2.574   5.684   1.436
 7253WAT     H135710   2.521   5.604   1.435
 7253WAT     H235711   2.519   5.748   1.481
 7254WAT      O35712   5.239   4.614   3.967
 7254WAT     H135713   5.204   4.648   3.884
 7254WAT     H235714   5.163   4.607   4.024
 7255WAT      O35715   0.547   4.123  11.488
 7255WAT     H135716   0.550   4.206  11.536
 7255WAT     H235717   0.635   4.088  11.495
 7256WAT      O35718   4.426   1.644   1.034
 7256WAT     H135719   4.414   1.559   0.991
 7256WAT     H235720   4.357   1.647   1.100
 7257WAT      O35721   4.240   0.396   1.622
 7257WAT     H135722   4.226   0.363   1.533
 7257WAT     H235723   4.219   0.322   1.678
 7258WAT      O35724   4.099   1.041   0.063
 7258WAT     H135725   4.173   1.084   0.107
 7258WAT     H235726   4.055   0.993   0.133
 7259WAT      O35727   4.394   0.379  12.650
 7259WAT     H135728   4.358   0.316  12.713
 7259WAT     H235729   4.488   0.377  12.665
 7260WAT      O35730   3.483   1.494  12.026
 7260WAT     H135731   3.540   1.518  12.099
 7260WAT     H235732   3.522   1.414  11.991
 7261WAT      O35733   4.221   0.037   3.574
 7261WAT     H135734   4.142  -0.017   3.573
 7261WAT     H235735   4.201   0.111   3.518
 7262WAT      O35736   1.823   2.297   4.462
 7262WAT     H135737   1.791   2.387   4.471
 7262WAT     H235738   1.818   2.262   4.551
 7263WAT      O35739   4.231   2.937   8.860
 7263WAT     H135740   4.142   2.927   8.826
 7263WAT     H235741   4.219   2.957   8.953
 7264WAT      O35742   0.511   2.720   1.904
 7264WAT     H135743   0.448   2.652   1.928
 7264WAT     H235744   0.494   2.738   1.812
 7265WAT      O35745   0.960   5.901   0.733
 7265WAT     H135746   0.906   5.974   0.702
 7265WAT     H235747   1.035   5.943   0.775
 7266WAT      O35748   2.552   1.988  11.414
 7266WAT     H135749   2.636   1.943  11.425
 7266WAT     H235750   2.576   2.079  11.397
 7267WAT      O35751   1.311   0.689   1.795
 7267WAT     H135752   1.222   0.682   1.761
 7267WAT     H235753   1.346   0.768   1.754
 7268WAT      O35754   2.182   0.113  12.189
 7268WAT     H135755   2.234   0.033  12.188
 7268WAT     H235756   2.217   0.163  12.263
 7269WAT      O35757   2.304   0.150   1.473
 7269WAT     H135758   2.361   0.207   1.423
 7269WAT     H235759   2.239   0.208   1.512
 7270WAT      O35760   5.094   1.773   7.905
 7270WAT     H135761   5.006   1.743   7.928
 7270WAT     H235762   5.099   1.861   7.942
 7271WAT      O35763   2.931   1.782   2.642
 7271WAT     H135764   2.854   1.838   2.633
 7271WAT     H235765   2.931   1.728   2.563
 7272WAT      O35766   0.686   5.669   2.023
 7272WAT     H135767   0.767   5.634   2.061
 7272WAT     H235768   0.633   5.591   2.007
 7273WAT      O35769   0.138   0.008   4.884
 7273WAT     H135770   0.137   0.103   4.890
 7273WAT     H235771   0.216  -0.012   4.831
 7274WAT      O35772   2.796   3.268   8.675
 7274WAT     H135773   2.700   3.269   8.682
 7274WAT     H235774   2.827   3.281   8.764
 7275WAT      O35775   5.570   5.937   0.364
 7275WAT     H135776   5.501   5.989   0.324
 7275WAT     H235777   5.592   5.871   0.298
 7276WAT      O35778   2.167   5.652   3.085
 7276WAT     H135779   2.213   5.735   3.084
 7276WAT     H235780   2.140   5.640   3.176
 7277WAT      O35781   3.536   2.861  12.548
 7277WAT     H135782   3.580   2.942  12.572
 7277WAT     H235783   3.450   2.866  12.588
 7278WAT      O35784   4.897   3.624  10.519
 7278WAT     H135785   4.819   3.569  10.509
 7278WAT     H235786   4.950   3.580  10.585
 7279WAT      O35787   3.149   0.949   1.127
 7279WAT     H135788   3.224   0.949   1.187
 7279WAT     H235789   3.173   0.888   1.058
 7280WAT      O35790   0.799   5.725   3.724
 7280WAT     H135791   0.772   5.760   3.809
 7280WAT     H235792   0.717   5.711   3.676
 7281WAT      O35793   5.539   4.374   3.308
 7281WAT     H135794   5.560   4.443   3.371
 7281WAT     H235795   5.609   4.378   3.243
 7282WAT      O35796   2.389   6.101   0.560
 7282WAT     H135797   2.407   6.164   0.491
 7282WAT     H235798   2.457   6.117   0.625
 7283WAT      O35799   1.182   5.278   3.646
 7283WAT     H135800   1.112   5.320   3.596
 7283WAT     H235801   1.262   5.310   3.605
 7284WAT      O35802   4.807   2.706   8.822
 7284WAT     H135803   4.755   2.785   8.841
 7284WAT     H235804   4.761   2.664   8.750
 7285WAT      O35805   0.443   3.464   2.705
 7285WAT     H135806   0.526   3.505   2.731
 7285WAT     H235807   0.379   3.498   2.767
 7286WAT      O35808   2.116   2.683   8.507
 7286WAT     H135809   2.084   2.683   8.417
 7286WAT     H235810   2.208   2.657   8.500
 7287WAT      O35811   1.249   4.809  10.495
 7287WAT     H135812   1.277   4.848  10.578
 7287WAT     H235813   1.226   4.719  10.517
 7288WAT      O35814   0.126   1.453   0.941
 7288WAT     H135815   0.179   1.382   0.977
 7288WAT     H235816   0.062   1.409   0.885
 7289WAT      O35817   4.465   0.439   8.837
 7289WAT     H135818   4.390   0.487   8.801
 7289WAT     H235819   4.515   0.504   8.885
 7290WAT      O35820   3.583   5.235   2.531
 7290WAT     H135821   3.489   5.227   2.519
 7290WAT     H235822   3.620   5.225   2.443
 7291WAT      O35823   4.724   2.674   2.602
 7291WAT     H135824   4.797   2.679   2.539
 7291WAT     H235825   4.761   2.707   2.684
 7292WAT      O35826   5.750   0.385   9.728
 7292WAT     H135827   5.707   0.348   9.651
 7292WAT     H235828   5.694   0.458   9.754
 7293WAT      O35829   3.405   1.656  10.943
 7293WAT     H135830   3.458   1.601  11.001
 7293WAT     H235831   3.467   1.718  10.905
 7294WAT      O35832   4.919   2.629  10.735
 7294WAT     H135833   4.973   2.653  10.660
 7294WAT     H235834   4.959   2.549  10.769
 7295WAT      O35835   0.097   5.429  11.312
 7295WAT     H135836   0.094   5.445  11.406
 7295WAT     H235837   0.181   5.387  11.297
 7296WAT      O35838   3.251   4.046   0.909
 7296WAT     H135839   3.326   3.997   0.942
 7296WAT     H235840   3.196   4.061   0.986
 7297WAT      O35841   4.894   3.084   8.944
 7297WAT     H135842   4.881   3.097   8.850
 7297WAT     H235843   4.845   3.155   8.985
 7298WAT      O35844   3.853   5.852   0.211
 7298WAT     H135845   3.851   5.905   0.131
 7298WAT     H235846   3.932   5.799   0.203
 7299WAT      O35847   0.356   1.543   4.375
 7299WAT     H135848   0.264   1.526   4.393
 7299WAT     H235849   0.403   1.500   4.447
 7300WAT      O35850   5.865   1.792  10.693
 7300WAT     H135851   5.926   1.866  10.692
 7300WAT     H235852   5.842   1.779  10.601
 7301WAT      O35853   5.146   1.931   1.970
 7301WAT     H135854   5.169   2.023   1.956
 7301WAT     H235855   5.229   1.884   1.964
 7302WAT      O35856   1.857   2.351   9.861
 7302WAT     H135857   1.788   2.307   9.813
 7302WAT     H235858   1.821   2.437   9.883
 7303WAT      O35859   1.501   3.127   0.498
 7303WAT     H135860   1.558   3.199   0.523
 7303WAT     H235861   1.414   3.154   0.529
 7304WAT      O35862   4.780   2.936   0.250
 7304WAT     H135863   4.689   2.918   0.276
 7304WAT     H235864   4.827   2.947   0.333
 7305WAT      O35865   1.511   5.289   1.827
 7305WAT     H135866   1.515   5.235   1.905
 7305WAT     H235867   1.441   5.250   1.775
 7306WAT      O35868   3.883   3.426  12.602
 7306WAT     H135869   3.901   3.353  12.662
 7306WAT     H235870   3.873   3.385  12.517
 7307WAT      O35871   4.919   2.146  11.475
 7307WAT     H135872   4.936   2.081  11.406
 7307WAT     H235873   4.970   2.223  11.449
 7308WAT      O35874   0.094   0.549   4.016
 7308WAT     H135875   0.057   0.472   4.059
 7308WAT     H235876   0.075   0.536   3.923
 7309WAT      O35877   5.946   1.846   2.191
 7309WAT     H135878   5.938   1.842   2.286
 7309WAT     H235879   5.946   1.940   2.171
 7310WAT      O35880   2.782   0.583   2.461
 7310WAT     H135881   2.751   0.496   2.438
 7310WAT     H235882   2.789   0.582   2.556
 7311WAT      O35883   2.105   5.169  11.077
 7311WAT     H135884   2.029   5.221  11.101
 7311WAT     H235885   2.073   5.108  11.011
 7312WAT      O35886   2.777   6.209  10.706
 7312WAT     H135887   2.690   6.187  10.737
 7312WAT     H235888   2.827   6.128  10.715
 7313WAT      O35889   4.761   0.231   7.921
 7313WAT     H135890   4.721   0.300   7.868
 7313WAT     H235891   4.822   0.187   7.861
 7314WAT      O35892   4.113   3.604   0.492
 7314WAT     H135893   4.075   3.674   0.545
 7314WAT     H235894   4.180   3.565   0.548
 7315WAT      O35895   3.245   4.679   1.393
 7315WAT     H135896   3.296   4.651   1.318
 7315WAT     H235897   3.173   4.616   1.399
 7316WAT      O35898   4.572   2.710   3.001
 7316WAT     H135899   4.650   2.754   3.034
 7316WAT     H235900   4.499   2.755   3.044
 7317WAT      O35901   1.893   0.974  12.355
 7317WAT     H135902   1.895   1.025  12.274
 7317WAT     H235903   1.832   1.021  12.412
 7318WAT      O35904   0.257   0.318   8.527
 7318WAT     H135905   0.306   0.368   8.462
 7318WAT     H235906   0.220   0.244   8.479
 7319WAT      O35907   3.388   2.225   4.262
 7319WAT     H135908   3.460   2.289   4.266
 7319WAT     H235909   3.314   2.270   4.302
 7320WAT      O35910   5.060   0.297  10.714
 7320WAT     H135911   4.989   0.298  10.650
 7320WAT     H235912   5.098   0.209  10.706
 7321WAT      O35913   5.393   4.785   2.522
 7321WAT     H135914   5.476   4.830   2.507
 7321WAT     H235915   5.408   4.696   2.493
 7322WAT      O35916   5.567   2.803   2.788
 7322WAT     H135917   5.628   2.735   2.816
 7322WAT     H235918   5.482   2.774   2.822
 7323WAT      O35919   3.144   3.796  12.226
 7323WAT     H135920   3.069   3.809  12.168
 7323WAT     H235921   3.205   3.867  12.205
 7324WAT      O35922   4.343   1.497   9.464
 7324WAT     H135923   4.321   1.440   9.538
 7324WAT     H235924   4.275   1.564   9.464
 7325WAT      O35925   5.049   3.289   7.574
 7325WAT     H135926   5.074   3.209   7.619
 7325WAT     H235927   5.125   3.347   7.582
 7326WAT      O35928   0.255   5.667   4.086
 7326WAT     H135929   0.182   5.683   4.146
 7326WAT     H235930   0.256   5.572   4.075
 7327WAT      O35931   4.973   4.918   2.187
 7327WAT     H135932   4.973   4.849   2.121
 7327WAT     H235933   4.961   4.999   2.138
 7328WAT      O35934   4.647   2.242   1.879
 7328WAT     H135935   4.717   2.249   1.815
 7328WAT     H235936   4.648   2.326   1.925
 7329WAT      O35937   0.743   2.082   3.835
 7329WAT     H135938   0.730   2.131   3.753
 7329WAT     H235939   0.733   2.148   3.904
 7330WAT      O35940   3.832   1.943   0.446
 7330WAT     H135941   3.809   2.034   0.424
 7330WAT     H235942   3.909   1.925   0.392
 7331WAT      O35943   0.516   2.155   9.329
 7331WAT     H135944   0.539   2.244   9.305
 7331WAT     H235945   0.426   2.144   9.299
 7332WAT      O35946   6.224   2.782   1.744
 7332WAT     H135947   6.180   2.701   1.768
 7332WAT     H235948   6.156   2.835   1.701
 7333WAT      O35949   3.548   2.518  11.255
 7333WAT     H135950   3.475   2.499  11.314
 7333WAT     H235951   3.507   2.525  11.168
 7334WAT      O35952   5.920   5.041   7.369
 7334WAT     H135953   5.917   5.011   7.460
 7334WAT     H235954   6.009   5.020   7.339
 7335WAT      O35955   1.710   1.457   8.545
 7335WAT     H135956   1.721   1.511   8.624
 7335WAT     H235957   1.739   1.514   8.473
 7336WAT      O35958   3.737   2.074   2.794
 7336WAT     H135959   3.676   2.003   2.813
 7336WAT     H235960   3.693   2.153   2.827
 7337WAT      O35961   1.776   1.847   2.490
 7337WAT     H135962   1.829   1.903   2.434
 7337WAT     H235963   1.765   1.766   2.441
 7338WAT      O35964   4.851   5.813  12.188
 7338WAT     H135965   4.866   5.721  12.165
 7338WAT     H235966   4.912   5.862  12.133
 7339WAT      O35967   5.619   5.240  10.801
 7339WAT     H135968   5.623   5.320  10.749
 7339WAT     H235969   5.690   5.186  10.768
 7340WAT      O35970   4.348   4.127   3.436
 7340WAT     H135971   4.255   4.128   3.457
 7340WAT     H235972   4.358   4.194   3.368
 7341WAT      O35973   4.454   0.044   3.692
 7341WAT     H135974   4.382   0.045   3.629
 7341WAT     H235975   4.417   0.081   3.772
 7342WAT      O35976   0.454   1.306  11.398
 7342WAT     H135977   0.428   1.217  11.421
 7342WAT     H235978   0.457   1.353  11.481
 7343WAT      O35979   3.382   3.825  11.160
 7343WAT     H135980   3.397   3.918  11.175
 7343WAT     H235981   3.411   3.782  11.241
 7344WAT      O35982   5.059   0.946   2.243
 7344WAT     H135983   4.999   0.904   2.304
 7344WAT     H235984   5.143   0.902   2.257
 7345WAT      O35985   4.371   0.137   1.902
 7345WAT     H135986   4.407   0.092   1.826
 7345WAT     H235987   4.387   0.230   1.885
 7346WAT      O35988   1.397   4.498   1.328
 7346WAT     H135989   1.326   4.562   1.321
 7346WAT     H235990   1.449   4.511   1.248
 7347WAT      O35991   1.865   1.595  12.112
 7347WAT     H135992   1.820   1.511  12.115
 7347WAT     H235993   1.796   1.659  12.091
 7348WAT      O35994   4.560   3.469   9.702
 7348WAT     H135995   4.606   3.434   9.779
 7348WAT     H235996   4.484   3.515   9.738
 7349WAT      O35997   5.981   1.983  11.340
 7349WAT     H135998   6.038   1.967  11.265
 7349WAT     H235999   6.031   2.044  11.395
 7350WAT      O36000   2.695   2.879   7.749
 7350WAT     H136001   2.785   2.912   7.748
 7350WAT     H236002   2.656   2.912   7.669
 7351WAT      O36003   3.800   1.075  10.091
 7351WAT     H136004   3.868   1.141  10.078
 7351WAT     H236005   3.732   1.098  10.027
 7352WAT      O36006   1.572   4.975  11.892
 7352WAT     H136007   1.533   5.051  11.849
 7352WAT     H236008   1.664   4.976  11.865
 7353WAT      O36009   0.476   1.213   7.364
 7353WAT     H136010   0.562   1.244   7.391
 7353WAT     H236011   0.447   1.157   7.436
 7354WAT      O36012   1.741   1.338   2.322
 7354WAT     H136013   1.784   1.310   2.403
 7354WAT     H236014   1.695   1.261   2.292
 7355WAT      O36015   3.215   4.259   4.101
 7355WAT     H136016   3.291   4.214   4.137
 7355WAT     H236017   3.250   4.340   4.064
 7356WAT      O36018   4.029   0.467  10.033
 7356WAT     H136019   3.976   0.460  10.113
 7356WAT     H236020   3.978   0.421   9.966
 7357WAT      O36021   2.292   6.077   0.242
 7357WAT     H136022   2.304   6.038   0.155
 7357WAT     H236023   2.209   6.040   0.273
 7358WAT      O36024   3.828   5.878   3.450
 7358WAT     H136025   3.862   5.789   3.445
 7358WAT     H236026   3.807   5.891   3.542
 7359WAT      O36027   4.534   1.628   9.255
 7359WAT     H136028   4.601   1.695   9.269
 7359WAT     H236029   4.578   1.545   9.273
 7360WAT      O36030   5.625   2.807   1.019
 7360WAT     H136031   5.562   2.869   1.055
 7360WAT     H236032   5.709   2.834   1.056
 7361WAT      O36033   1.396   4.990   2.792
 7361WAT     H136034   1.387   5.058   2.725
 7361WAT     H236035   1.460   5.025   2.853
 7362WAT      O36036   6.199   5.382   0.040
 7362WAT     H136037   6.243   5.299   0.021
 7362WAT     H236038   6.269   5.439   0.073
 7363WAT      O36039   1.233   1.281   2.732
 7363WAT     H136040   1.307   1.221   2.743
 7363WAT     H236041   1.261   1.362   2.776
 7364WAT      O36042   3.429   2.526   3.202
 7364WAT     H136043   3.387   2.555   3.283
 7364WAT     H236044   3.361   2.535   3.135
 7365WAT      O36045   5.164   5.404   1.326
 7365WAT     H136046   5.152   5.499   1.326
 7365WAT     H236047   5.121   5.374   1.246
 7366WAT      O36048   4.987   2.383   3.062
 7366WAT     H136049   4.922   2.448   3.090
 7366WAT     H236050   4.987   2.318   3.132
 7367WAT      O36051   2.247   0.788   2.622
 7367WAT     H136052   2.182   0.797   2.691
 7367WAT     H236053   2.299   0.868   2.627
 7368WAT      O36054   0.441   4.371   4.880
 7368WAT     H136055   0.527   4.388   4.841
 7368WAT     H236056   0.378   4.391   4.811
 7369WAT      O36057   4.976   4.177   0.122
 7369WAT     H136058   4.886   4.151   0.142
 7369WAT     H236059   4.971   4.272   0.108
 7370WAT      O36060   5.016   4.665   4.112
 7370WAT     H136061   4.925   4.638   4.099
 7370WAT     H236062   5.029   4.660   4.207
 7371WAT      O36063   0.105   2.577   8.144
 7371WAT     H136064   0.120   2.519   8.070
 7371WAT     H236065   0.016   2.555   8.174
 7372WAT      O36066   1.327   0.618   4.029
 7372WAT     H136067   1.360   0.614   4.118
 7372WAT     H236068   1.405   0.605   3.974
 7373WAT      O36069   4.125   3.552   2.406
 7373WAT     H136070   4.115   3.535   2.312
 7373WAT     H236071   4.137   3.466   2.445
 7374WAT      O36072   3.952   5.767   1.852
 7374WAT     H136073   3.975   5.697   1.789
 7374WAT     H236074   3.942   5.721   1.935
 7375WAT      O36075   4.037   3.779   9.501
 7375WAT     H136076   4.018   3.689   9.476
 7375WAT     H236077   4.087   3.772   9.582
 7376WAT      O36078   1.220   2.334   3.015
 7376WAT     H136079   1.290   2.377   3.064
 7376WAT     H236080   1.170   2.406   2.976
 7377WAT      O36081   0.624   5.336   3.242
 7377WAT     H136082   0.711   5.335   3.203
 7377WAT     H236083   0.570   5.383   3.179
 7378WAT      O36084   2.993   6.134   0.448
 7378WAT     H136085   3.035   6.126   0.533
 7378WAT     H236086   2.901   6.154   0.469
 7379WAT      O36087   0.422   1.219   0.310
 7379WAT     H136088   0.430   1.231   0.405
 7379WAT     H236089   0.472   1.139   0.292
 7380WAT      O36090   1.871   6.060   2.640
 7380WAT     H136091   1.905   6.055   2.551
 7380WAT     H236092   1.809   6.133   2.638
 7381WAT      O36093   0.146   3.157   7.557
 7381WAT     H136094   0.090   3.109   7.618
 7381WAT     H236095   0.089   3.226   7.522
 7382WAT      O36096   5.058   1.286  10.325
 7382WAT     H136097   5.027   1.248  10.408
 7382WAT     H236098   5.056   1.380  10.340
 7383WAT      O36099   5.621   0.594   8.665
 7383WAT     H136100   5.619   0.563   8.574
 7383WAT     H236101   5.714   0.603   8.685
 7384WAT      O36102   1.199   4.544  10.552
 7384WAT     H136103   1.227   4.499  10.632
 7384WAT     H236104   1.238   4.493  10.481
 7385WAT      O36105   5.576   1.603   3.818
 7385WAT     H136106   5.660   1.594   3.862
 7385WAT     H236107   5.584   1.683   3.765
 7386WAT      O36108   5.434  -0.020  11.669
 7386WAT     H136109   5.511   0.014  11.714
 7386WAT     H236110   5.361   0.034  11.701
 7387WAT      O36111   0.966   3.767   8.914
 7387WAT     H136112   0.872   3.762   8.896
 7387WAT     H236113   0.993   3.676   8.927
 7388WAT      O36114   1.513   5.094  10.071
 7388WAT     H136115   1.539   5.111  10.162
 7388WAT     H236116   1.595   5.074  10.025
 7389WAT      O36117   0.689   4.174   4.060
 7389WAT     H136118   0.695   4.079   4.071
 7389WAT     H236119   0.698   4.209   4.149
 7390WAT      O36120   2.191   6.094  10.868
 7390WAT     H136121   2.124   6.141  10.818
 7390WAT     H236122   2.178   6.125  10.958
 7391WAT      O36123   4.119   4.790  11.487
 7391WAT     H136124   4.059   4.742  11.544
 7391WAT     H236125   4.062   4.842  11.431
 7392WAT      O36126   0.671   4.269   9.054
 7392WAT     H136127   0.763   4.244   9.061
 7392WAT     H236128   0.625   4.189   9.029
 7393WAT      O36129   4.060   1.798  10.636
 7393WAT     H136130   4.080   1.736  10.707
 7393WAT     H236131   3.965   1.799  10.631
 7394WAT      O36132   2.072   5.780  12.222
 7394WAT     H136133   2.131   5.716  12.180
 7394WAT     H236134   1.990   5.732  12.235
 7395WAT      O36135   0.787   2.485   0.336
 7395WAT     H136136   0.880   2.504   0.330
 7395WAT     H236137   0.773   2.411   0.276
 7396WAT      O36138   1.939   1.243   0.264
 7396WAT     H136139   1.863   1.292   0.294
 7396WAT     H236140   1.984   1.302   0.204
 7397WAT      O36141   1.683   4.003  11.669
 7397WAT     H136142   1.728   3.982  11.751
 7397WAT     H236143   1.680   4.099  11.668
 7398WAT      O36144   4.923   5.161   0.306
 7398WAT     H136145   4.908   5.126   0.394
 7398WAT     H236146   4.849   5.219   0.290
 7399WAT      O36147   3.675   2.744   2.580
 7399WAT     H136148   3.753   2.701   2.547
 7399WAT     H236149   3.707   2.805   2.647
 7400WAT      O36150   2.235   5.127   3.379
 7400WAT     H136151   2.255   5.074   3.456
 7400WAT     H236152   2.187   5.068   3.322
 7401WAT      O36153   2.785   2.649   8.132
 7401WAT     H136154   2.726   2.676   8.062
 7401WAT     H236155   2.867   2.626   8.088
 7402WAT      O36156   5.079   6.130  10.281
 7402WAT     H136157   5.089   6.135  10.186
 7402WAT     H236158   4.997   6.177  10.299
 7403WAT      O36159   0.432   1.313   8.770
 7403WAT     H136160   0.521   1.348   8.763
 7403WAT     H236161   0.421   1.258   8.693
 7404WAT      O36162   2.921   0.944   8.306
 7404WAT     H136163   2.864   1.010   8.266
 7404WAT     H236164   2.867   0.865   8.308
 7405WAT      O36165   2.721   1.425   8.238
 7405WAT     H136166   2.747   1.349   8.186
 7405WAT     H236167   2.629   1.440   8.214
 7406WAT      O36168   0.201   4.817   4.046
 7406WAT     H136169   0.209   4.874   4.122
 7406WAT     H236170   0.203   4.728   4.082
 7407WAT      O36171   1.017   2.560  11.933
 7407WAT     H136172   1.012   2.528  11.843
 7407WAT     H236173   1.104   2.599  11.940
 7408WAT      O36174   4.579   4.654   0.185
 7408WAT     H136175   4.657   4.708   0.190
 7408WAT     H236176   4.610   4.565   0.199
 7409WAT      O36177   2.293   3.284   4.228
 7409WAT     H136178   2.275   3.199   4.268
 7409WAT     H236179   2.212   3.305   4.180
 7410WAT      O36180   0.302   4.969   2.618
 7410WAT     H136181   0.359   4.953   2.693
 7410WAT     H236182   0.257   5.051   2.638
 7411WAT      O36183   4.920   0.897  11.124
 7411WAT     H136184   4.828   0.876  11.141
 7411WAT     H236185   4.953   0.822  11.074
 7412WAT      O36186   1.920   0.532  10.965
 7412WAT     H136187   1.841   0.485  10.937
 7412WAT     H236188   1.903   0.556  11.056
 7413WAT      O36189   4.715   5.090   2.439
 7413WAT     H136190   4.622   5.111   2.442
 7413WAT     H236191   4.719   5.001   2.405
 7414WAT      O36192   1.659   4.412   4.130
 7414WAT     H136193   1.635   4.497   4.168
 7414WAT     H236194   1.670   4.355   4.206
 7415WAT      O36195   1.404   4.690   2.102
 7415WAT     H136196   1.386   4.684   2.196
 7415WAT     H236197   1.317   4.689   2.062
 7416WAT      O36198   5.716   6.139  10.236
 7416WAT     H136199   5.735   6.230  10.211
 7416WAT     H236200   5.753   6.130  10.323
 7417WAT      O36201   0.454   5.168   8.651
 7417WAT     H136202   0.465   5.263   8.650
 7417WAT     H236203   0.497   5.140   8.732
 7418WAT      O36204   1.708   0.552   1.712
 7418WAT     H136205   1.621   0.516   1.697
 7418WAT     H236206   1.704   0.641   1.679
 7419WAT      O36207   0.210   4.483   3.788
 7419WAT     H136208   0.256   4.498   3.871
 7419WAT     H236209   0.202   4.570   3.749
 7420WAT      O36210   3.618   2.362   3.266
 7420WAT     H136211   3.583   2.280   3.300
 7420WAT     H236212   3.540   2.415   3.246
 7421WAT      O36213   1.946   5.254   1.716
 7421WAT     H136214   1.896   5.313   1.772
 7421WAT     H236215   1.949   5.171   1.765
 7422WAT      O36216   6.056   0.725   3.198
 7422WAT     H136217   6.144   0.701   3.228
 7422WAT     H236218   6.018   0.643   3.166
 7423WAT      O36219   2.893   2.734   5.009
 7423WAT     H136220   2.831   2.723   4.936
 7423WAT     H236221   2.872   2.820   5.045
 7424WAT      O36222   0.152   6.133   0.288
 7424WAT     H136223   0.236   6.150   0.247
 7424WAT     H236224   0.160   6.168   0.376
 7425WAT      O36225   0.032   1.003   2.134
 7425WAT     H136226  -0.007   1.019   2.219
 7425WAT     H236227   0.032   1.089   2.091
 7426WAT      O36228   4.726   2.715   4.178
 7426WAT     H136229   4.801   2.683   4.230
 7426WAT     H236230   4.722   2.655   4.103
 7427WAT      O36231   1.953   2.104   2.018
 7427WAT     H136232   1.912   2.178   1.973
 7427WAT     H236233   2.036   2.091   1.972
 7428WAT      O36234   2.526   4.457   0.422
 7428WAT     H136235   2.474   4.497   0.491
 7428WAT     H236236   2.596   4.520   0.405
 7429WAT      O36237   2.140   1.043   1.895
 7429WAT     H136238   2.156   0.968   1.837
 7429WAT     H236239   2.223   1.091   1.895
 7430WAT      O36240   4.610   0.342   3.615
 7430WAT     H136241   4.672   0.403   3.575
 7430WAT     H236242   4.619   0.261   3.565
 7431WAT      O36243   4.489   1.027   8.984
 7431WAT     H136244   4.526   1.109   8.951
 7431WAT     H236245   4.403   1.021   8.943
 7432WAT      O36246   6.165   6.082  10.081
 7432WAT     H136247   6.115   6.108  10.004
 7432WAT     H236248   6.256   6.084  10.052
 7433WAT      O36249   5.178   1.411   9.775
 7433WAT     H136250   5.233   1.336   9.754
 7433WAT     H236251   5.240   1.478   9.804
 7434WAT      O36252   1.645   3.934   3.104
 7434WAT     H136253   1.614   4.013   3.149
 7434WAT     H236254   1.699   3.890   3.169
 7435WAT      O36255   3.157   4.821   8.337
 7435WAT     H136256   3.214   4.802   8.412
 7435WAT     H236257   3.158   4.740   8.286
 7436WAT      O36258   2.174   3.872   2.311
 7436WAT     H136259   2.196   3.944   2.370
 7436WAT     H236260   2.254   3.855   2.262
 7437WAT      O36261   1.001   5.683   9.163
 7437WAT     H136262   1.017   5.596   9.200
 7437WAT     H236263   0.938   5.724   9.222
 7438WAT      O36264   0.242   1.111  12.480
 7438WAT     H136265   0.307   1.173  12.514
 7438WAT     H236266   0.271   1.093  12.391
 7439WAT      O36267   0.269   1.744   1.648
 7439WAT     H136268   0.334   1.680   1.676
 7439WAT     H236269   0.221   1.699   1.578
 7440WAT      O36270   1.035   0.739  12.250
 7440WAT     H136271   1.100   0.724  12.319
 7440WAT     H236272   1.024   0.654  12.208
 7441WAT      O36273   0.475   6.212   2.441
 7441WAT     H136274   0.560   6.202   2.484
 7441WAT     H236275   0.461   6.129   2.396
 7442WAT      O36276   5.708   2.331   3.530
 7442WAT     H136277   5.676   2.416   3.502
 7442WAT     H236278   5.678   2.270   3.463
 7443WAT      O36279   5.310   2.572   2.582
 7443WAT     H136280   5.372   2.505   2.611
 7443WAT     H236281   5.243   2.573   2.650
 7444WAT      O36282   2.305   4.034   2.475
 7444WAT     H136283   2.386   4.028   2.525
 7444WAT     H236284   2.236   4.026   2.541
 7445WAT      O36285   4.261   2.175  12.572
 7445WAT     H136286   4.267   2.093  12.523
 7445WAT     H236287   4.191   2.224  12.529
 7446WAT      O36288   2.240   3.963   3.001
 7446WAT     H136289   2.291   3.981   3.080
 7446WAT     H236290   2.149   3.970   3.029
 7447WAT      O36291   2.248   4.009   0.847
 7447WAT     H136292   2.236   4.098   0.879
 7447WAT     H236293   2.164   3.967   0.861
 7448WAT      O36294   5.599   0.161  10.371
 7448WAT     H136295   5.513   0.194  10.395
 7448WAT     H236296   5.612   0.085  10.428
 7449WAT      O36297   5.875   3.133   2.264
 7449WAT     H136298   5.872   3.039   2.251
 7449WAT     H236299   5.956   3.161   2.221
 7450WAT      O36300   2.068   2.279   0.810
 7450WAT     H136301   2.105   2.359   0.848
 7450WAT     H236302   2.133   2.252   0.745
 7451WAT      O36303   5.902   2.417   8.822
 7451WAT     H136304   5.966   2.373   8.766
 7451WAT     H236305   5.954   2.484   8.868
 7452WAT      O36306   0.079   0.192   3.936
 7452WAT     H136307   0.129   0.147   4.005
 7452WAT     H236308   0.124   0.168   3.855
 7453WAT      O36309   5.399   1.900   3.056
 7453WAT     H136310   5.367   1.873   3.142
 7453WAT     H236311   5.336   1.862   2.994
 7454WAT      O36312   1.421   2.116   3.382
 7454WAT     H136313   1.397   2.207   3.368
 7454WAT     H236314   1.348   2.078   3.431
 7455WAT      O36315   1.398   6.046   9.931
 7455WAT     H136316   1.479   6.064   9.979
 7455WAT     H236317   1.328   6.060   9.995
 7456WAT      O36318   0.841   5.232   8.658
 7456WAT     H136319   0.797   5.270   8.582
 7456WAT     H236320   0.860   5.307   8.715
 7457WAT      O36321   2.429   4.624   2.542
 7457WAT     H136322   2.497   4.691   2.550
 7457WAT     H236323   2.375   4.635   2.619
 7458WAT      O36324   2.614   1.906   3.092
 7458WAT     H136325   2.584   1.869   3.009
 7458WAT     H236326   2.704   1.934   3.075
 7459WAT      O36327   1.406   4.602   3.900
 7459WAT     H136328   1.445   4.629   3.817
 7459WAT     H236329   1.396   4.684   3.949
 7460WAT      O36330   0.359   0.920  11.774
 7460WAT     H136331   0.432   0.886  11.722
 7460WAT     H236332   0.374   1.015  11.776
 7461WAT      O36333   1.534   0.308  12.222
 7461WAT     H136334   1.448   0.288  12.259
 7461WAT     H236335   1.523   0.395  12.184
 7462WAT      O36336   3.893   3.810   3.515
 7462WAT     H136337   3.840   3.889   3.507
 7462WAT     H236338   3.961   3.833   3.578
 7463WAT      O36339   5.917   5.210   3.319
 7463WAT     H136340   5.940   5.217   3.227
 7463WAT     H236341   5.829   5.172   3.319
 7464WAT      O36342   0.986   3.340   8.254
 7464WAT     H136343   1.053   3.272   8.246
 7464WAT     H236344   0.903   3.292   8.251
 7465WAT      O36345   2.169   5.788   9.182
 7465WAT     H136346   2.093   5.841   9.206
 7465WAT     H236347   2.136   5.698   9.178
 7466WAT      O36348   1.289   5.779   1.514
 7466WAT     H136349   1.267   5.855   1.568
 7466WAT     H236350   1.331   5.718   1.575
 7467WAT      O36351   3.810   5.491  10.460
 7467WAT     H136352   3.765   5.407  10.474
 7467WAT     H236353   3.795   5.511  10.368
 7468WAT      O36354   4.480   5.310   4.354
 7468WAT     H136355   4.458   5.386   4.407
 7468WAT     H236356   4.568   5.328   4.321
 7469WAT      O36357   3.894   3.922  10.564
 7469WAT     H136358   3.871   4.011  10.591
 7469WAT     H236359   3.826   3.866  10.601
 7470WAT      O36360   0.691   0.994   2.066
 7470WAT     H136361   0.705   0.999   1.971
 7470WAT     H236362   0.682   1.086   2.093
 7471WAT      O36363   1.439   4.518   2.659
 7471WAT     H136364   1.403   4.603   2.685
 7471WAT     H236365   1.378   4.454   2.695
 7472WAT      O36366   4.334   4.688   0.061
 7472WAT     H136367   4.363   4.672  -0.028
 7472WAT     H236368   4.411   4.673   0.115
 7473WAT      O36369   2.393   1.581   0.701
 7473WAT     H136370   2.455   1.606   0.769
 7473WAT     H236371   2.309   1.571   0.747
 7474WAT      O36372   2.531   3.387   9.151
 7474WAT     H136373   2.590   3.408   9.079
 7474WAT     H236374   2.528   3.466   9.204
 7475WAT      O36375   4.228   2.855   8.024
 7475WAT     H136376   4.223   2.844   8.119
 7475WAT     H236377   4.243   2.949   8.012
 7476WAT      O36378   0.569   4.896   4.819
 7476WAT     H136379   0.582   4.954   4.744
 7476WAT     H236380   0.492   4.931   4.863
 7477WAT      O36381   3.133   0.813   2.585
 7477WAT     H136382   3.119   0.724   2.618
 7477WAT     H236383   3.085   0.815   2.502
 7478WAT      O36384   3.882   4.972   1.293
 7478WAT     H136385   3.896   5.067   1.296
 7478WAT     H236386   3.966   4.934   1.317
 7479WAT      O36387  -0.003   0.738  11.473
 7479WAT     H136388   0.071   0.754  11.413
 7479WAT     H236389   0.030   0.674  11.535
 7480WAT      O36390   2.857   2.153  10.247
 7480WAT     H136391   2.851   2.159  10.151
 7480WAT     H236392   2.772   2.117  10.274
 7481WAT      O36393   2.542   3.898   0.634
 7481WAT     H136394   2.636   3.892   0.652
 7481WAT     H236395   2.500   3.886   0.719
 7482WAT      O36396   1.690   1.329   1.368
 7482WAT     H136397   1.668   1.324   1.461
 7482WAT     H236398   1.767   1.273   1.359
 7483WAT      O36399   6.036   5.254   3.880
 7483WAT     H136400   6.023   5.316   3.808
 7483WAT     H236401   5.954   5.204   3.883
 7484WAT      O36402   1.245   5.584  10.160
 7484WAT     H136403   1.161   5.543  10.138
 7484WAT     H236404   1.230   5.678  10.148
 7485WAT      O36405   2.238   5.479   9.104
 7485WAT     H136406   2.211   5.419   9.173
 7485WAT     H236407   2.334   5.481   9.109
 7486WAT      O36408   0.352   2.548  11.706
 7486WAT     H136409   0.337   2.473  11.762
 7486WAT     H236410   0.418   2.600  11.752
 7487WAT      O36411   0.134   3.047  10.286
 7487WAT     H136412   0.229   3.057  10.280
 7487WAT     H236413   0.118   3.033  10.380
 7488WAT      O36414   0.309   4.198  10.026
 7488WAT     H136415   0.255   4.262   9.982
 7488WAT     H236416   0.284   4.204  10.118
 7489WAT      O36417   1.274   3.895   3.258
 7489WAT     H136418   1.201   3.835   3.270
 7489WAT     H236419   1.342   3.841   3.216
 7490WAT      O36420   2.601   3.987   3.421
 7490WAT     H136421   2.590   3.946   3.507
 7490WAT     H236422   2.594   4.081   3.437
 7491WAT      O36423   5.773   1.997   1.817
 7491WAT     H136424   5.853   2.003   1.765
 7491WAT     H236425   5.801   2.020   1.906
 7492WAT      O36426   0.107   3.860   4.711
 7492WAT     H136427   0.127   3.861   4.805
 7492WAT     H236428   0.068   3.945   4.694
 7493WAT      O36429   4.417   2.205  10.168
 7493WAT     H136430   4.474   2.207  10.091
 7493WAT     H236431   4.477   2.189  10.241
 7494WAT      O36432   5.269   0.304  10.892
 7494WAT     H136433   5.202   0.333  10.829
 7494WAT     H236434   5.308   0.386  10.924
 7495WAT      O36435   3.719   0.313  10.961
 7495WAT     H136436   3.776   0.386  10.937
 7495WAT     H236437   3.698   0.271  10.878
 7496WAT      O36438   2.915   0.213  12.624
 7496WAT     H136439   2.834   0.202  12.575
 7496WAT     H236440   2.942   0.124  12.646
 7497WAT      O36441   3.532   2.054  11.891
 7497WAT     H136442   3.541   1.960  11.906
 7497WAT     H236443   3.441   2.072  11.915
 7498WAT      O36444   1.525   3.650  12.416
 7498WAT     H136445   1.589   3.685  12.354
 7498WAT     H236446   1.497   3.567  12.378
 7499WAT      O36447   3.647   1.803  10.284
 7499WAT     H136448   3.713   1.799  10.215
 7499WAT     H236449   3.626   1.712  10.303
 7500WAT      O36450   5.405   0.479   0.658
 7500WAT     H136451   5.386   0.559   0.609
 7500WAT     H236452   5.322   0.456   0.700
 7501WAT      O36453   0.970   4.763   3.355
 7501WAT     H136454   0.890   4.721   3.388
 7501WAT     H236455   0.983   4.837   3.413
 7502WAT      O36456   2.397   1.366   2.146
 7502WAT     H136457   2.390   1.307   2.221
 7502WAT     H236458   2.316   1.416   2.147
 7503WAT      O36459   1.234   1.608   1.072
 7503WAT     H136460   1.264   1.521   1.046
 7503WAT     H236461   1.311   1.648   1.114
 7504WAT      O36462   3.584   5.714  11.302
 7504WAT     H136463   3.572   5.689  11.210
 7504WAT     H236464   3.678   5.703  11.317
 7505WAT      O36465   1.185   5.644   9.408
 7505WAT     H136466   1.130   5.709   9.364
 7505WAT     H236467   1.150   5.639   9.497
 7506WAT      O36468   5.861   5.258  12.178
 7506WAT     H136469   5.786   5.202  12.157
 7506WAT     H236470   5.821   5.337  12.214
 7507WAT      O36471   1.628   4.091   8.732
 7507WAT     H136472   1.571   4.085   8.655
 7507WAT     H236473   1.656   4.001   8.749
 7508WAT      O36474   0.775   3.960   1.656
 7508WAT     H136475   0.723   3.923   1.727
 7508WAT     H236476   0.793   3.886   1.598
 7509WAT      O36477   3.574   6.083   0.311
 7509WAT     H136478   3.573   6.178   0.317
 7509WAT     H236479   3.579   6.053   0.402
 7510WAT      O36480   5.908   4.216  12.012
 7510WAT     H136481   5.912   4.275  12.088
 7510WAT     H236482   5.821   4.175  12.019
 7511WAT      O36483   2.197   1.617   3.158
 7511WAT     H136484   2.249   1.647   3.083
 7511WAT     H236485   2.145   1.694   3.183
 7512WAT      O36486   3.297   4.804   1.999
 7512WAT     H136487   3.296   4.892   1.961
 7512WAT     H236488   3.389   4.777   1.994
 7513WAT      O36489   3.408   0.339  11.405
 7513WAT     H136490   3.340   0.384  11.355
 7513WAT     H236491   3.417   0.390  11.485
 7514WAT      O36492   3.336   3.700   1.939
 7514WAT     H136493   3.349   3.717   2.033
 7514WAT     H236494   3.345   3.785   1.898
 7515WAT      O36495   3.679   3.831  10.731
 7515WAT     H136496   3.629   3.895  10.680
 7515WAT     H236497   3.616   3.762  10.751
 7516WAT      O36498   3.184   5.433   8.371
 7516WAT     H136499   3.140   5.362   8.324
 7516WAT     H236500   3.115   5.473   8.424
 7517WAT      O36501   0.466   0.178   9.425
 7517WAT     H136502   0.533   0.173   9.357
 7517WAT     H236503   0.434   0.268   9.421
 7518WAT      O36504   6.032   4.429   2.601
 7518WAT     H136505   5.951   4.440   2.649
 7518WAT     H236506   6.005   4.400   2.514
 7519WAT      O36507   2.587   0.536  11.546
 7519WAT     H136508   2.577   0.551  11.640
 7519WAT     H236509   2.525   0.597  11.505
 7520WAT      O36510   5.617   1.839   7.467
 7520WAT     H136511   5.601   1.788   7.546
 7520WAT     H236512   5.613   1.930   7.496
 7521WAT      O36513   1.933   2.729   0.208
 7521WAT     H136514   1.913   2.732   0.115
 7521WAT     H236515   1.990   2.652   0.218
 7522WAT      O36516   4.739   3.618   1.435
 7522WAT     H136517   4.706   3.552   1.373
 7522WAT     H236518   4.750   3.697   1.381
 7523WAT      O36519   3.006   4.197   8.376
 7523WAT     H136520   2.914   4.220   8.390
 7523WAT     H236521   3.007   4.152   8.291
 7524WAT      O36522   2.753   3.679  12.105
 7524WAT     H136523   2.657   3.680  12.107
 7524WAT     H236524   2.776   3.587  12.120
 7525WAT      O36525   5.819   1.701   9.117
 7525WAT     H136526   5.889   1.638   9.135
 7525WAT     H236527   5.858   1.764   9.057
 7526WAT      O36528   1.090   1.604  10.545
 7526WAT     H136529   1.049   1.663  10.481
 7526WAT     H236530   1.155   1.658  10.589
 7527WAT      O36531   5.264   2.291   0.886
 7527WAT     H136532   5.317   2.233   0.941
 7527WAT     H236533   5.183   2.304   0.936
 7528WAT      O36534   4.403   1.311   9.189
 7528WAT     H136535   4.493   1.339   9.173
 7528WAT     H236536   4.408   1.216   9.197
 7529WAT      O36537   0.763   5.001  12.424
 7529WAT     H136538   0.753   5.047  12.341
 7529WAT     H236539   0.682   5.019  12.471
 7530WAT      O36540   5.789   3.123   4.377
 7530WAT     H136541   5.697   3.117   4.352
 7530WAT     H236542   5.833   3.058   4.322
 7531WAT      O36543   5.970   2.250   9.655
 7531WAT     H136544   5.981   2.334   9.700
 7531WAT     H236545   5.891   2.261   9.602
 7532WAT      O36546   2.154   0.337   1.572
 7532WAT     H136547   2.197   0.381   1.646
 7532WAT     H236548   2.062   0.330   1.599
 7533WAT      O36549   2.161   0.317   2.898
 7533WAT     H136550   2.192   0.304   2.987
 7533WAT     H236551   2.232   0.364   2.854
 7534WAT      O36552   4.477   0.373  12.013
 7534WAT     H136553   4.437   0.303  11.962
 7534WAT     H236554   4.467   0.344  12.104
 7535WAT      O36555   4.939   5.849   2.768
 7535WAT     H136556   4.910   5.897   2.845
 7535WAT     H236557   4.984   5.772   2.803
 7536WAT      O36558   2.804   2.823   1.080
 7536WAT     H136559   2.759   2.740   1.064
 7536WAT     H236560   2.895   2.807   1.055
 7537WAT      O36561   2.102   5.587   2.821
 7537WAT     H136562   2.070   5.669   2.785
 7537WAT     H236563   2.144   5.611   2.904
 7538WAT      O36564   0.158   0.332  11.821
 7538WAT     H136565   0.124   0.252  11.783
 7538WAT     H236566   0.097   0.401  11.793
 7539WAT      O36567   6.242   1.836   1.364
 7539WAT     H136568   6.305   1.764   1.359
 7539WAT     H236569   6.157   1.794   1.353
 7540WAT      O36570   3.326   1.930   2.466
 7540WAT     H136571   3.275   1.930   2.385
 7540WAT     H236572   3.409   1.971   2.442
 7541WAT      O36573   1.878   3.531   8.565
 7541WAT     H136574   1.863   3.506   8.656
 7541WAT     H236575   1.960   3.489   8.541
 7542WAT      O36576   1.995   4.461   4.008
 7542WAT     H136577   2.037   4.462   4.095
 7542WAT     H236578   1.948   4.544   4.003
 7543WAT      O36579   0.813   5.234   3.633
 7543WAT     H136580   0.862   5.246   3.714
 7543WAT     H236581   0.865   5.280   3.566
 7544WAT      O36582   2.481   5.609   5.114
 7544WAT     H136583   2.548   5.632   5.049
 7544WAT     H236584   2.412   5.674   5.100
 7545WAT      O36585   0.082   1.157   1.298
 7545WAT     H136586   0.024   1.218   1.252
 7545WAT     H236587   0.025   1.085   1.324
 7546WAT      O36588   5.266   1.353   2.361
 7546WAT     H136589   5.295   1.324   2.447
 7546WAT     H236590   5.193   1.295   2.340
 7547WAT      O36591   2.184   4.240   8.236
 7547WAT     H136592   2.234   4.295   8.175
 7547WAT     H236593   2.116   4.200   8.182
 7548WAT      O36594   4.688   0.184   4.751
 7548WAT     H136595   4.769   0.180   4.801
 7548WAT     H236596   4.717   0.178   4.659
 7549WAT      O36597   2.725   5.407   3.209
 7549WAT     H136598   2.664   5.458   3.262
 7549WAT     H236599   2.671   5.367   3.141
 7550WAT      O36600   5.727   1.132  11.364
 7550WAT     H136601   5.814   1.125  11.404
 7550WAT     H236602   5.669   1.155  11.436
 7551WAT      O36603   0.700   2.752   9.374
 7551WAT     H136604   0.717   2.802   9.294
 7551WAT     H236605   0.639   2.683   9.347
 7552WAT      O36606   0.334   3.399  10.198
 7552WAT     H136607   0.295   3.465  10.255
 7552WAT     H236608   0.261   3.365  10.147
 7553WAT      O36609   2.476   1.612   4.523
 7553WAT     H136610   2.554   1.663   4.543
 7553WAT     H236611   2.505   1.548   4.457
 7554WAT      O36612   1.380   0.983   1.194
 7554WAT     H136613   1.439   1.052   1.163
 7554WAT     H236614   1.298   1.029   1.213
 7555WAT      O36615   4.337   4.475   0.419
 7555WAT     H136616   4.418   4.469   0.368
 7555WAT     H236617   4.347   4.555   0.470
 7556WAT      O36618   3.336   6.040   2.884
 7556WAT     H136619   3.424   6.038   2.848
 7556WAT     H236620   3.347   6.015   2.976
 7557WAT      O36621   4.293   3.781   3.563
 7557WAT     H136622   4.217   3.839   3.571
 7557WAT     H236623   4.361   3.823   3.615
 7558WAT      O36624   2.143   5.372  10.320
 7558WAT     H136625   2.167   5.283  10.347
 7558WAT     H236626   2.181   5.382  10.232
 7559WAT      O36627   2.673   5.684   4.629
 7559WAT     H136628   2.686   5.600   4.586
 7559WAT     H236629   2.641   5.743   4.560
 7560WAT      O36630   1.148   3.300  12.193
 7560WAT     H136631   1.182   3.220  12.233
 7560WAT     H236632   1.160   3.288  12.099
 7561WAT      O36633   1.868   3.394   8.799
 7561WAT     H136634   1.867   3.311   8.752
 7561WAT     H236635   1.855   3.370   8.890
 7562WAT      O36636   5.595   2.716   9.632
 7562WAT     H136637   5.635   2.802   9.642
 7562WAT     H236638   5.615   2.671   9.714
 7563WAT      O36639   0.865   1.024   1.256
 7563WAT     H136640   0.864   1.047   1.349
 7563WAT     H236641   0.774   1.005   1.235
 7564WAT      O36642   2.512   4.417   2.730
 7564WAT     H136643   2.494   4.474   2.655
 7564WAT     H236644   2.603   4.434   2.752
 7565WAT      O36645   1.762   4.992   4.733
 7565WAT     H136646   1.842   5.030   4.768
 7565WAT     H236647   1.692   5.030   4.786
 7566WAT      O36648   2.686   1.158  12.165
 7566WAT     H136649   2.721   1.229  12.220
 7566WAT     H236650   2.764   1.118  12.127
 7567WAT      O36651   1.904   5.680  10.161
 7567WAT     H136652   1.949   5.678  10.246
 7567WAT     H236653   1.929   5.764  10.123
 7568WAT      O36654   0.365   3.335  12.495
 7568WAT     H136655   0.327   3.414  12.534
 7568WAT     H236656   0.427   3.368  12.430
 7569WAT      O36657   3.201   4.886  10.121
 7569WAT     H136658   3.172   4.860  10.209
 7569WAT     H236659   3.121   4.917  10.078
 7570WAT      O36660   2.330   4.931   1.544
 7570WAT     H136661   2.330   4.836   1.557
 7570WAT     H236662   2.246   4.949   1.501
 7571WAT      O36663   0.175   5.275   3.000
 7571WAT     H136664   0.265   5.306   3.000
 7571WAT     H236665   0.125   5.345   2.960
 7572WAT      O36666   1.935   2.727   0.982
 7572WAT     H136667   1.988   2.795   1.023
 7572WAT     H236668   1.845   2.758   0.989
 7573WAT      O36669   1.381   3.277  11.621
 7573WAT     H136670   1.373   3.362  11.665
 7573WAT     H236671   1.409   3.298  11.532
 7574WAT      O36672   4.775   3.977   7.575
 7574WAT     H136673   4.818   4.059   7.598
 7574WAT     H236674   4.842   3.926   7.529
 7575WAT      O36675   1.111   6.108   2.488
 7575WAT     H136676   1.072   6.129   2.573
 7575WAT     H236677   1.037   6.085   2.432
 7576WAT      O36678   2.239   2.020  12.233
 7576WAT     H136679   2.202   2.057  12.153
 7576WAT     H236680   2.319   1.975  12.204
 7577WAT      O36681   1.119   5.337   2.315
 7577WAT     H136682   1.112   5.355   2.409
 7577WAT     H236683   1.114   5.423   2.274
 7578WAT      O36684   0.051   0.060  11.642
 7578WAT     H136685   0.133   0.088  11.603
 7578WAT     H236686   0.022  -0.014  11.588
 7579WAT      O36687   5.621   1.915   2.477
 7579WAT     H136688   5.600   1.821   2.479
 7579WAT     H236689   5.677   1.925   2.400
 7580WAT      O36690   1.745   4.369   9.492
 7580WAT     H136691   1.818   4.345   9.549
 7580WAT     H236692   1.679   4.301   9.507
 7581WAT      O36693   6.025   2.435  10.894
 7581WAT     H136694   5.992   2.523  10.875
 7581WAT     H236695   6.118   2.438  10.873
 7582WAT      O36696   2.949   4.447  12.126
 7582WAT     H136697   3.004   4.384  12.173
 7582WAT     H236698   2.982   4.533  12.152
 7583WAT      O36699   2.828   1.826   0.921
 7583WAT     H136700   2.806   1.883   0.995
 7583WAT     H236701   2.923   1.815   0.927
 7584WAT      O36702   4.147   4.587  11.308
 7584WAT     H136703   4.149   4.616  11.217
 7584WAT     H236704   4.154   4.668  11.359
 7585WAT      O36705   1.165   4.589   9.789
 7585WAT     H136706   1.238   4.544   9.747
 7585WAT     H236707   1.206   4.659   9.840
 7586WAT      O36708   3.124   5.998   7.388
 7586WAT     H136709   3.179   5.986   7.465
 7586WAT     H236710   3.126   6.092   7.371
 7587WAT      O36711   4.705   4.171  10.784
 7587WAT     H136712   4.691   4.081  10.814
 7587WAT     H236713   4.719   4.163  10.690
 7588WAT      O36714   2.161   6.133   1.990
 7588WAT     H136715   2.106   6.138   2.068
 7588WAT     H236716   2.188   6.223   1.973
 7589WAT      O36717   1.018   2.313   3.806
 7589WAT     H136718   0.931   2.343   3.781
 7589WAT     H236719   1.055   2.386   3.856
 7590WAT      O36720   0.135   3.877  10.772
 7590WAT     H136721   0.100   3.964  10.790
 7590WAT     H236722   0.155   3.841  10.858
 7591WAT      O36723   5.399   5.632   3.587
 7591WAT     H136724   5.408   5.538   3.606
 7591WAT     H236725   5.311   5.640   3.551
 7592WAT      O36726   2.826   4.454   8.618
 7592WAT     H136727   2.846   4.434   8.526
 7592WAT     H236728   2.828   4.368   8.661
 7593WAT      O36729   5.083   4.100   8.849
 7593WAT     H136730   5.103   4.143   8.766
 7593WAT     H236731   5.055   4.172   8.906
 7594WAT      O36732   5.896   3.330  10.525
 7594WAT     H136733   5.969   3.268  10.532
 7594WAT     H236734   5.934   3.415  10.546
 7595WAT      O36735   0.567   1.468   0.969
 7595WAT     H136736   0.544   1.546   0.918
 7595WAT     H236737   0.564   1.396   0.906
 7596WAT      O36738   2.567   5.216  12.103
 7596WAT     H136739   2.476   5.212  12.132
 7596WAT     H236740   2.586   5.129  12.069
 7597WAT      O36741   4.309   4.192   2.534
 7597WAT     H136742   4.368   4.267   2.522
 7597WAT     H236743   4.239   4.205   2.470
 7598WAT      O36744   3.640   2.935   2.259
 7598WAT     H136745   3.649   2.989   2.338
 7598WAT     H236746   3.581   2.985   2.203
 7599WAT      O36747   3.817   1.175  12.361
 7599WAT     H136748   3.795   1.120  12.286
 7599WAT     H236749   3.734   1.213  12.388
 7600WAT      O36750   4.455   5.990   3.232
 7600WAT     H136751   4.475   6.076   3.197
 7600WAT     H236752   4.480   5.995   3.324
 7601WAT      O36753   2.990   3.675   3.295
 7601WAT     H136754   3.029   3.600   3.340
 7601WAT     H236755   2.902   3.682   3.332
 7602WAT      O36756   5.205   2.784   4.404
 7602WAT     H136757   5.135   2.767   4.467
 7602WAT     H236758   5.209   2.879   4.397
 7603WAT      O36759   5.334   3.118   0.466
 7603WAT     H136760   5.286   3.068   0.532
 7603WAT     H236761   5.345   3.205   0.504
 7604WAT      O36762   3.687   1.962   8.859
 7604WAT     H136763   3.596   1.964   8.890
 7604WAT     H236764   3.739   1.968   8.939
 7605WAT      O36765   1.843   4.317   3.687
 7605WAT     H136766   1.820   4.230   3.655
 7605WAT     H236767   1.844   4.309   3.782
 7606WAT      O36768   1.176   1.263   4.355
 7606WAT     H136769   1.225   1.189   4.318
 7606WAT     H236770   1.208   1.269   4.445
 7607WAT      O36771   0.429   2.960   2.994
 7607WAT     H136772   0.441   3.026   2.926
 7607WAT     H236773   0.505   2.902   2.985
 7608WAT      O36774   5.254   0.844   3.030
 7608WAT     H136775   5.164   0.833   3.000
 7608WAT     H236776   5.294   0.903   2.966
 7609WAT      O36777   1.807   5.135  11.400
 7609WAT     H136778   1.761   5.056  11.371
 7609WAT     H236779   1.835   5.115  11.489
 7610WAT      O36780   4.570   2.050   9.433
 7610WAT     H136781   4.519   2.097   9.367
 7610WAT     H236782   4.576   2.110   9.507
 7611WAT      O36783   3.114   2.503   2.343
 7611WAT     H136784   3.135   2.585   2.389
 7611WAT     H236785   3.128   2.435   2.408
 7612WAT      O36786   4.001   5.318   8.445
 7612WAT     H136787   3.963   5.364   8.519
 7612WAT     H236788   3.984   5.376   8.370
 7613WAT      O36789   1.199   3.424  10.407
 7613WAT     H136790   1.286   3.404  10.374
 7613WAT     H236791   1.158   3.475  10.338
 7614WAT      O36792   3.585   2.836  10.851
 7614WAT     H136793   3.613   2.769  10.788
 7614WAT     H236794   3.666   2.882  10.875
 7615WAT      O36795   1.294   1.183   3.083
 7615WAT     H136796   1.309   1.250   3.150
 7615WAT     H236797   1.320   1.224   3.001
 7616WAT      O36798   3.677   1.569  11.410
 7616WAT     H136799   3.632   1.579  11.494
 7616WAT     H236800   3.756   1.520  11.431
 7617WAT      O36801   0.840   3.930   8.709
 7617WAT     H136802   0.885   3.906   8.628
 7617WAT     H236803   0.903   3.911   8.779
 7618WAT      O36804   5.432   6.054  10.677
 7618WAT     H136805   5.465   6.047  10.767
 7618WAT     H236806   5.351   6.104  10.685
 7619WAT      O36807   5.501   1.185  10.508
 7619WAT     H136808   5.452   1.168  10.588
 7619WAT     H236809   5.529   1.098  10.478
 7620WAT      O36810   4.109   0.870   1.768
 7620WAT     H136811   4.166   0.946   1.754
 7620WAT     H236812   4.121   0.816   1.689
 7621WAT      O36813   2.557   5.502   9.043
 7621WAT     H136814   2.603   5.423   9.015
 7621WAT     H236815   2.585   5.515   9.133
 7622WAT      O36816   5.530   4.901   9.657
 7622WAT     H136817   5.487   4.831   9.707
 7622WAT     H236818   5.608   4.923   9.709
 7623WAT      O36819   0.287   4.931   4.621
 7623WAT     H136820   0.304   4.929   4.715
 7623WAT     H236821   0.194   4.955   4.614
 7624WAT      O36822   4.346   4.372   8.785
 7624WAT     H136823   4.321   4.281   8.770
 7624WAT     H236824   4.390   4.371   8.870
 7625WAT      O36825   3.733   0.213  11.691
 7625WAT     H136826   3.793   0.286  11.712
 7625WAT     H236827   3.727   0.214  11.595
 7626WAT      O36828   5.904   2.543   0.848
 7626WAT     H136829   5.954   2.606   0.796
 7626WAT     H236830   5.907   2.579   0.937
 7627WAT      O36831   1.669   5.142   8.278
 7627WAT     H136832   1.678   5.072   8.213
 7627WAT     H236833   1.753   5.188   8.276
 7628WAT      O36834   2.201   3.057  10.048
 7628WAT     H136835   2.247   3.130  10.090
 7628WAT     H236836   2.164   3.096   9.969
 7629WAT      O36837   2.246   1.587   4.308
 7629WAT     H136838   2.258   1.553   4.397
 7629WAT     H236839   2.282   1.518   4.251
 7630WAT      O36840   5.460   5.996   9.467
 7630WAT     H136841   5.399   6.069   9.466
 7630WAT     H236842   5.425   5.935   9.403
 7631WAT      O36843   3.694   1.493  10.666
 7631WAT     H136844   3.620   1.433  10.675
 7631WAT     H236845   3.701   1.507  10.571
 7632WAT      O36846   0.664   3.957  11.166
 7632WAT     H136847   0.582   3.919  11.134
 7632WAT     H236848   0.719   3.881  11.189
 7633WAT      O36849   2.801   1.174   3.582
 7633WAT     H136850   2.821   1.226   3.660
 7633WAT     H236851   2.725   1.219   3.543
 7634WAT      O36852   1.398   5.936   3.144
 7634WAT     H136853   1.489   5.960   3.128
 7634WAT     H236854   1.362   6.010   3.194
 7635WAT      O36855   5.105   0.917  12.384
 7635WAT     H136856   5.096   0.921  12.479
 7635WAT     H236857   5.085   0.826  12.362
 7636WAT      O36858   5.311   2.592   1.577
 7636WAT     H136859   5.283   2.620   1.490
 7636WAT     H236860   5.324   2.674   1.625
 7637WAT      O36861   5.001   3.938  12.656
 7637WAT     H136862   5.035   3.954  12.568
 7637WAT     H236863   4.969   4.023  12.685
 7638WAT      O36864   0.296   2.569   4.257
 7638WAT     H136865   0.262   2.642   4.309
 7638WAT     H236866   0.377   2.602   4.218
 7639WAT      O36867   0.267   1.366   4.070
 7639WAT     H136868   0.317   1.445   4.089
 7639WAT     H236869   0.325   1.312   4.017
 7640WAT      O36870   0.497   0.737   8.885
 7640WAT     H136871   0.435   0.775   8.823
 7640WAT     H236872   0.571   0.799   8.887
 7641WAT      O36873   1.655   4.065  11.177
 7641WAT     H136874   1.703   4.059  11.260
 7641WAT     H236875   1.564   4.050  11.201
 7642WAT      O36876   2.775   2.285   0.705
 7642WAT     H136877   2.750   2.193   0.707
 7642WAT     H236878   2.694   2.332   0.725
 7643WAT      O36879   4.818   0.373  12.026
 7643WAT     H136880   4.753   0.302  12.023
 7643WAT     H236881   4.872   0.352  12.102
 7644WAT      O36882   6.137   1.797   1.699
 7644WAT     H136883   6.098   1.772   1.783
 7644WAT     H236884   6.136   1.716   1.647
 7645WAT      O36885   5.599   0.616   1.096
 7645WAT     H136886   5.651   0.648   1.022
 7645WAT     H236887   5.605   0.684   1.162
 7646WAT      O36888   5.550   0.616   1.564
 7646WAT     H136889   5.551   0.527   1.599
 7646WAT     H236890   5.464   0.627   1.526
 7647WAT      O36891   5.375   2.185   9.696
 7647WAT     H136892   5.355   2.215   9.608
 7647WAT     H236893   5.444   2.120   9.684
 7648WAT      O36894   5.164   2.827   2.056
 7648WAT     H136895   5.151   2.746   2.007
 7648WAT     H236896   5.259   2.840   2.055
 7649WAT      O36897   1.994   0.373   2.612
 7649WAT     H136898   2.080   0.405   2.639
 7649WAT     H236899   1.971   0.306   2.676
 7650WAT      O36900   4.198   3.635  11.830
 7650WAT     H136901   4.137   3.615  11.759
 7650WAT     H236902   4.164   3.716  11.869
 7651WAT      O36903   0.155   5.758   1.047
 7651WAT     H136904   0.200   5.676   1.026
 7651WAT     H236905   0.117   5.785   0.963
 7652WAT      O36906   0.273   2.497   0.959
 7652WAT     H136907   0.203   2.479   0.896
 7652WAT     H236908   0.335   2.426   0.946
 7653WAT      O36909   2.881   5.521   1.407
 7653WAT     H136910   2.805   5.559   1.362
 7653WAT     H236911   2.850   5.436   1.439
 7654WAT      O36912   1.400   1.110   1.846
 7654WAT     H136913   1.310   1.090   1.820
 7654WAT     H236914   1.395   1.131   1.939
 7655WAT      O36915   4.191   0.303  11.057
 7655WAT     H136916   4.186   0.209  11.073
 7655WAT     H236917   4.254   0.313  10.987
 7656WAT      O36918   2.410   2.256   8.389
 7656WAT     H136919   2.450   2.275   8.474
 7656WAT     H236920   2.458   2.309   8.327
 7657WAT      O36921   4.161   0.546   9.639
 7657WAT     H136922   4.208   0.470   9.673
 7657WAT     H236923   4.222   0.619   9.653
 7658WAT      O36924   4.425   0.207   1.192
 7658WAT     H136925   4.482   0.154   1.248
 7658WAT     H236926   4.453   0.184   1.103
 7659WAT      O36927   0.622   0.849   1.470
 7659WAT     H136928   0.527   0.847   1.486
 7659WAT     H236929   0.632   0.910   1.397
 7660WAT      O36930   2.668   2.101   2.830
 7660WAT     H136931   2.659   2.098   2.735
 7660WAT     H236932   2.577   2.096   2.862
 7661WAT      O36933   3.106   3.846   9.522
 7661WAT     H136934   3.156   3.788   9.579
 7661WAT     H236935   3.028   3.796   9.499
 7662WAT      O36936   0.743   1.896  10.753
 7662WAT     H136937   0.702   1.868  10.835
 7662WAT     H236938   0.834   1.868  10.760
 7663WAT      O36939   4.301   6.153   9.140
 7663WAT     H136940   4.384   6.105   9.132
 7663WAT     H236941   4.242   6.092   9.183
 7664WAT      O36942   5.454   3.948  11.347
 7664WAT     H136943   5.366   3.923  11.320
 7664WAT     H236944   5.467   3.903  11.430
 7665WAT      O36945   2.076   0.475   9.718
 7665WAT     H136946   2.036   0.562   9.722
 7665WAT     H236947   2.067   0.449   9.626
 7666WAT      O36948   0.498   1.612   0.322
 7666WAT     H136949   0.458   1.665   0.392
 7666WAT     H236950   0.428   1.553   0.295
 7667WAT      O36951   1.546   1.109  12.459
 7667WAT     H136952   1.558   1.193  12.504
 7667WAT     H236953   1.555   1.130  12.366
 7668WAT      O36954   0.094   3.511   0.145
 7668WAT     H136955   0.089   3.573   0.218
 7668WAT     H236956   0.037   3.548   0.078
 7669WAT      O36957   2.836   0.300   1.625
 7669WAT     H136958   2.764   0.258   1.672
 7669WAT     H236959   2.904   0.232   1.621
 7670WAT      O36960   3.632   1.399   3.154
 7670WAT     H136961   3.717   1.443   3.147
 7670WAT     H236962   3.573   1.465   3.189
 7671WAT      O36963   0.990   5.318   3.437
 7671WAT     H136964   0.951   5.306   3.351
 7671WAT     H236965   0.998   5.412   3.447
 7672WAT      O36966   2.138   4.059   1.779
 7672WAT     H136967   2.100   4.124   1.838
 7672WAT     H236968   2.111   4.087   1.692
 7673WAT      O36969   3.947   5.967   2.277
 7673WAT     H136970   3.998   6.042   2.249
 7673WAT     H236971   3.985   5.942   2.361
 7674WAT      O36972   4.411   4.105  11.317
 7674WAT     H136973   4.466   4.027  11.323
 7674WAT     H236974   4.451   4.167  11.378
 7675WAT      O36975   4.164   4.967  10.883
 7675WAT     H136976   4.116   4.885  10.872
 7675WAT     H236977   4.207   4.982  10.799
 7676WAT      O36978   6.137   3.331   0.465
 7676WAT     H136979   6.217   3.279   0.453
 7676WAT     H236980   6.165   3.405   0.519
 7677WAT      O36981   5.230   0.158  11.693
 7677WAT     H136982   5.185   0.190  11.614
 7677WAT     H236983   5.174   0.184  11.765
 7678WAT      O36984   6.053   0.280  12.112
 7678WAT     H136985   6.134   0.308  12.154
 7678WAT     H236986   5.993   0.263  12.185
 7679WAT      O36987   2.499   3.649  12.132
 7679WAT     H136988   2.481   3.662  12.225
 7679WAT     H236989   2.443   3.713  12.088
 7680WAT      O36990   3.713   1.483   9.047
 7680WAT     H136991   3.728   1.459   9.138
 7680WAT     H236992   3.689   1.576   9.050
 7681WAT      O36993   4.503   1.946   7.354
 7681WAT     H136994   4.454   2.020   7.319
 7681WAT     H236995   4.584   1.945   7.305
 7682WAT      O36996   4.841   6.102  11.863
 7682WAT     H136997   4.818   6.031  11.803
 7682WAT     H236998   4.783   6.174  11.838
 7683WAT      O36999   3.517   1.860   3.587
 7683WAT     H137000   3.564   1.842   3.506
 7683WAT     H237001   3.574   1.828   3.656
 7684WAT      O37002   2.082   2.642  12.512
 7684WAT     H137003   2.151   2.706  12.494
 7684WAT     H237004   2.018   2.691  12.565
 7685WAT      O37005   2.446   4.402  11.256
 7685WAT     H137006   2.386   4.341  11.299
 7685WAT     H237007   2.394   4.481  11.242
 7686WAT      O37008   3.858   3.030   3.903
 7686WAT     H137009   3.814   2.976   3.968
 7686WAT     H237010   3.948   2.996   3.901
 7687WAT      O37011   1.438   1.059   9.525
 7687WAT     H137012   1.478   1.144   9.545
 7687WAT     H237013   1.415   1.064   9.432
 7688WAT      O37014   4.588   5.246   8.791
 7688WAT     H137015   4.676   5.248   8.756
 7688WAT     H237016   4.599   5.224   8.884
 7689WAT      O37017   5.308   4.564  12.425
 7689WAT     H137018   5.358   4.585  12.346
 7689WAT     H237019   5.219   4.593  12.406
 7690WAT      O37020   5.613   1.950   1.612
 7690WAT     H137021   5.658   2.008   1.550
 7690WAT     H237022   5.669   1.948   1.689
 7691WAT      O37023   1.864   3.825   1.122
 7691WAT     H137024   1.801   3.885   1.081
 7691WAT     H237025   1.811   3.773   1.183
 7692WAT      O37026   5.507   3.626  12.555
 7692WAT     H137027   5.420   3.594  12.533
 7692WAT     H237028   5.511   3.713  12.516
 7693WAT      O37029   2.832   3.140  12.129
 7693WAT     H137030   2.785   3.057  12.128
 7693WAT     H237031   2.872   3.147  12.042
 7694WAT      O37032   0.957   3.002   8.340
 7694WAT     H137033   1.046   3.038   8.336
 7694WAT     H237034   0.947   2.952   8.259
 7695WAT      O37035   0.817   5.023  10.485
 7695WAT     H137036   0.810   4.992  10.575
 7695WAT     H237037   0.890   5.085  10.487
 7696WAT      O37038   1.931   5.359   1.170
 7696WAT     H137039   1.902   5.347   1.261
 7696WAT     H237040   1.870   5.424   1.135
 7697WAT      O37041   0.268   4.344   2.692
 7697WAT     H137042   0.264   4.282   2.619
 7697WAT     H237043   0.231   4.297   2.766
 7698WAT      O37044   1.091   4.542   0.124
 7698WAT     H137045   1.006   4.512   0.093
 7698WAT     H237046   1.072   4.589   0.206
 7699WAT      O37047   4.090   5.874   3.260
 7699WAT     H137048   4.033   5.798   3.263
 7699WAT     H237049   4.139   5.871   3.342
 7700WAT      O37050   1.556   1.243   4.343
 7700WAT     H137051   1.545   1.331   4.379
 7700WAT     H237052   1.468   1.215   4.320
 7701WAT      O37053   4.906   0.412   8.876
 7701WAT     H137054   4.895   0.491   8.823
 7701WAT     H237055   4.938   0.346   8.815
 7702WAT      O37056   3.448   6.090   2.599
 7702WAT     H137057   3.508   6.112   2.671
 7702WAT     H237058   3.430   5.997   2.610
 7703WAT      O37059   4.333   3.994  12.328
 7703WAT     H137060   4.396   3.921  12.328
 7703WAT     H237061   4.331   4.024  12.418
 7704WAT      O37062   4.414   5.023  10.411
 7704WAT     H137063   4.382   4.933  10.413
 7704WAT     H237064   4.397   5.053  10.322
 7705WAT      O37065   5.216   5.675   2.195
 7705WAT     H137066   5.295   5.713   2.157
 7705WAT     H237067   5.190   5.737   2.263
 7706WAT      O37068   5.236   5.412   8.015
 7706WAT     H137069   5.290   5.415   7.936
 7706WAT     H237070   5.220   5.318   8.030
 7707WAT      O37071   3.630   2.608  12.457
 7707WAT     H137072   3.582   2.687  12.480
 7707WAT     H237073   3.589   2.577  12.376
 7708WAT      O37074   0.758   0.369   3.678
 7708WAT     H137075   0.820   0.390   3.749
 7708WAT     H237076   0.763   0.274   3.670
 7709WAT      O37077   4.948   4.673   1.869
 7709WAT     H137078   4.944   4.768   1.861
 7709WAT     H237079   4.999   4.645   1.792
 7710WAT      O37080   2.902   3.157  10.521
 7710WAT     H137081   2.815   3.196  10.522
 7710WAT     H237082   2.938   3.180  10.436
 7711WAT      O37083   1.381   1.949  11.372
 7711WAT     H137084   1.452   1.939  11.308
 7711WAT     H237085   1.372   1.862  11.411
 7712WAT      O37086   0.088   2.661   2.089
 7712WAT     H137087   0.045   2.746   2.080
 7712WAT     H237088   0.050   2.623   2.168
 7713WAT      O37089   5.413   5.506  10.169
 7713WAT     H137090   5.408   5.530  10.261
 7713WAT     H237091   5.424   5.411  10.169
 7714WAT      O37092   5.569   1.194   3.012
 7714WAT     H137093   5.623   1.117   2.996
 7714WAT     H237094   5.615   1.265   2.967
 7715WAT      O37095   6.063   5.201   1.815
 7715WAT     H137096   6.095   5.112   1.799
 7715WAT     H237097   6.057   5.241   1.728
 7716WAT      O37098   3.433   1.594   2.428
 7716WAT     H137099   3.447   1.649   2.351
 7716WAT     H237100   3.389   1.516   2.394
 7717WAT      O37101   1.067   1.931  11.579
 7717WAT     H137102   1.078   1.967  11.491
 7717WAT     H237103   1.065   2.009  11.636
 7718WAT      O37104   1.492   2.515   3.753
 7718WAT     H137105   1.472   2.574   3.825
 7718WAT     H237106   1.581   2.485   3.769
 7719WAT      O37107   3.663   1.320   0.033
 7719WAT     H137108   3.713   1.274  -0.035
 7719WAT     H237109   3.699   1.287   0.115
 7720WAT      O37110   3.818   6.084  10.474
 7720WAT     H137111   3.787   6.098  10.564
 7720WAT     H237112   3.861   5.999  10.477
 7721WAT      O37113   1.665   0.647   8.627
 7721WAT     H137114   1.674   0.633   8.533
 7721WAT     H237115   1.655   0.558   8.663
 7722WAT      O37116   3.505   2.605  10.667
 7722WAT     H137117   3.425   2.640  10.707
 7722WAT     H237118   3.528   2.530  10.722
 7723WAT      O37119   5.996   5.454   3.702
 7723WAT     H137120   5.923   5.475   3.644
 7723WAT     H237121   6.052   5.531   3.701
 7724WAT      O37122   3.801   2.027  12.549
 7724WAT     H137123   3.866   2.006  12.481
 7724WAT     H237124   3.815   2.121  12.566
 7725WAT      O37125   0.767   5.068   8.087
 7725WAT     H137126   0.834   5.136   8.087
 7725WAT     H237127   0.796   5.004   8.151
 7726WAT      O37128   1.986   0.388  12.158
 7726WAT     H137129   1.940   0.303  12.158
 7726WAT     H237130   2.044   0.383  12.234
 7727WAT      O37131   4.393   1.867  12.463
 7727WAT     H137132   4.342   1.805  12.410
 7727WAT     H237133   4.478   1.872  12.419
 7728WAT      O37134   0.704   2.167  10.713
 7728WAT     H137135   0.702   2.086  10.765
 7728WAT     H237136   0.630   2.218  10.745
 7729WAT      O37137   0.509   3.624   0.053
 7729WAT     H137138   0.546   3.604   0.139
 7729WAT     H237139   0.586   3.636  -0.003
 7730WAT      O37140   2.710   1.472   8.500
 7730WAT     H137141   2.629   1.521   8.513
 7730WAT     H237142   2.723   1.471   8.405
 7731WAT      O37143   0.852   2.725   4.145
 7731WAT     H137144   0.831   2.807   4.190
 7731WAT     H237145   0.942   2.706   4.170
 7732WAT      O37146   6.219   1.160   3.741
 7732WAT     H137147   6.235   1.123   3.828
 7732WAT     H237148   6.127   1.141   3.724
 7733WAT      O37149   1.126   1.980   2.227
 7733WAT     H137150   1.113   1.998   2.320
 7733WAT     H237151   1.145   1.886   2.223
 7734WAT      O37152   4.122   2.078   0.520
 7734WAT     H137153   4.171   2.151   0.557
 7734WAT     H237154   4.031   2.097   0.541
 7735WAT      O37155   5.952   5.569  10.473
 7735WAT     H137156   5.946   5.664  10.488
 7735WAT     H237157   5.892   5.552  10.401
 7736WAT      O37158   0.517   1.971  11.732
 7736WAT     H137159   0.529   2.010  11.818
 7736WAT     H237160   0.604   1.939  11.708
 7737WAT      O37161   4.990   3.744   3.108
 7737WAT     H137162   4.970   3.786   3.192
 7737WAT     H237163   5.079   3.772   3.087
 7738WAT      O37164   5.200   6.204   0.988
 7738WAT     H137165   5.287   6.239   0.968
 7738WAT     H237166   5.212   6.156   1.070
 7739WAT      O37167   4.226   1.938  10.460
 7739WAT     H137168   4.161   1.892  10.513
 7739WAT     H237169   4.304   1.882  10.465
 7740WAT      O37170   0.113   1.957   1.635
 7740WAT     H137171   0.180   1.891   1.652
 7740WAT     H237172   0.033   1.907   1.621
 7741WAT      O37173   1.353   6.030   2.868
 7741WAT     H137174   1.352   6.003   2.959
 7741WAT     H237175   1.306   6.114   2.867
 7742WAT      O37176   4.783   3.297   9.563
 7742WAT     H137177   4.851   3.332   9.621
 7742WAT     H237178   4.745   3.374   9.521
 7743WAT      O37179   4.630   1.780   4.310
 7743WAT     H137180   4.559   1.758   4.370
 7743WAT     H237181   4.692   1.831   4.364
 7744WAT      O37182   3.227   2.279   8.970
 7744WAT     H137183   3.264   2.342   8.908
 7744WAT     H237184   3.154   2.239   8.923
 7745WAT      O37185   3.956   5.415   8.685
 7745WAT     H137186   3.878   5.457   8.721
 7745WAT     H237187   4.029   5.450   8.737
 7746WAT      O37188   1.675   4.263  10.042
 7746WAT     H137189   1.637   4.339   9.998
 7746WAT     H237190   1.634   4.188  10.000
 7747WAT      O37191   2.591   3.605   0.199
 7747WAT     H137192   2.596   3.654   0.281
 7747WAT     H237193   2.681   3.578   0.180
 7748WAT      O37194   0.951   1.497   2.307
 7748WAT     H137195   1.005   1.435   2.356
 7748WAT     H237196   0.909   1.550   2.374
 7749WAT      O37197   5.957   6.033   9.136
 7749WAT     H137198   6.036   6.073   9.100
 7749WAT     H237199   5.931   5.968   9.071
 7750WAT      O37200   0.598   1.621   3.322
 7750WAT     H137201   0.642   1.706   3.332
 7750WAT     H237202   0.539   1.616   3.397
 7751WAT      O37203   2.317   4.467   3.332
 7751WAT     H137204   2.276   4.421   3.405
 7751WAT     H237205   2.383   4.407   3.300
 7752WAT      O37206   3.611   5.313   9.339
 7752WAT     H137207   3.690   5.271   9.303
 7752WAT     H237208   3.644   5.374   9.404
 7753WAT      O37209   0.863   2.056   0.773
 7753WAT     H137210   0.913   2.125   0.817
 7753WAT     H237211   0.870   2.078   0.680
 7754WAT      O37212   1.085   2.837  12.442
 7754WAT     H137213   1.128   2.761  12.481
 7754WAT     H237214   1.074   2.898  12.515
 7755WAT      O37215   4.700   3.285   9.930
 7755WAT     H137216   4.787   3.278   9.891
 7755WAT     H237217   4.672   3.194   9.942
 7756WAT      O37218   3.891   2.571   0.969
 7756WAT     H137219   3.985   2.589   0.975
 7756WAT     H237220   3.864   2.608   0.885
 7757WAT      O37221   6.172   2.083   1.250
 7757WAT     H137222   6.200   2.017   1.313
 7757WAT     H237223   6.098   2.043   1.205
 7758WAT      O37224   0.948   0.174   9.385
 7758WAT     H137225   0.995   0.246   9.343
 7758WAT     H237226   0.988   0.168   9.472
 7759WAT      O37227   2.423   4.262   9.133
 7759WAT     H137228   2.329   4.249   9.151
 7759WAT     H237229   2.427   4.339   9.078
 7760WAT      O37230   1.415   2.749   0.273
 7760WAT     H137231   1.473   2.821   0.298
 7760WAT     H237232   1.333   2.768   0.318
 7761WAT      O37233   3.659   5.161   1.668
 7761WAT     H137234   3.614   5.220   1.728
 7761WAT     H237235   3.593   5.096   1.643
 7762WAT      O37236   3.769   3.897   9.353
 7762WAT     H137237   3.731   3.830   9.297
 7762WAT     H237238   3.860   3.904   9.325
 7763WAT      O37239   3.982   0.937   8.760
 7763WAT     H137240   4.049   0.918   8.826
 7763WAT     H237241   3.963   0.853   8.719
 7764WAT      O37242   3.135   1.066   0.024
 7764WAT     H137243   3.192   1.104   0.090
 7764WAT     H237244   3.182   1.077  -0.058
 7765WAT      O37245   3.599   2.153   1.691
 7765WAT     H137246   3.520   2.198   1.722
 7765WAT     H237247   3.585   2.144   1.597
 7766WAT      O37248   0.681   4.527   9.640
 7766WAT     H137249   0.757   4.531   9.698
 7766WAT     H237250   0.718   4.513   9.553
 7767WAT      O37251   0.134   5.044   2.209
 7767WAT     H137252   0.063   5.096   2.171
 7767WAT     H237253   0.101   5.017   2.295
 7768WAT      O37254   1.858   0.354   1.219
 7768WAT     H137255   1.950   0.371   1.239
 7768WAT     H237256   1.841   0.268   1.259
 7769WAT      O37257   6.143   5.327  11.679
 7769WAT     H137258   6.084   5.263  11.718
 7769WAT     H237259   6.201   5.276  11.623
 7770WAT      O37260   2.527   3.930   2.613
 7770WAT     H137261   2.614   3.895   2.595
 7770WAT     H237262   2.468   3.856   2.602
 7771WAT      O37263   6.045   2.769   3.802
 7771WAT     H137264   6.004   2.785   3.887
 7771WAT     H237265   6.005   2.833   3.743
 7772WAT      O37266   0.691   4.924   9.327
 7772WAT     H137267   0.647   5.006   9.304
 7772WAT     H237268   0.682   4.917   9.422
 7773WAT      O37269   5.581   2.043   3.893
 7773WAT     H137270   5.508   2.093   3.858
 7773WAT     H237271   5.568   2.044   3.988
 7774WAT      O37272   4.998   0.312   8.231
 7774WAT     H137273   4.912   0.335   8.268
 7774WAT     H237274   5.007   0.370   8.156
 7775WAT      O37275   6.066   2.727   0.713
 7775WAT     H137276   6.107   2.771   0.639
 7775WAT     H237277   6.084   2.784   0.788
 7776WAT      O37278   4.479   4.773  12.212
 7776WAT     H137279   4.533   4.844  12.248
 7776WAT     H237280   4.499   4.773  12.119
 7777WAT      O37281   6.093   2.580  10.601
 7777WAT     H137282   6.188   2.574  10.596
 7777WAT     H237283   6.076   2.635  10.677
 7778WAT      O37284   5.646   3.552   1.060
 7778WAT     H137285   5.590   3.485   1.022
 7778WAT     H237286   5.642   3.625   0.998
 7779WAT      O37287   5.814   1.573   9.439
 7779WAT     H137288   5.847   1.490   9.473
 7779WAT     H237289   5.875   1.595   9.369
 7780WAT      O37290   2.721   0.118   9.513
 7780WAT     H137291   2.748   0.059   9.443
 7780WAT     H237292   2.678   0.061   9.577
 7781WAT      O37293   0.522   3.981   9.311
 7781WAT     H137294   0.552   3.937   9.390
 7781WAT     H237295   0.582   3.951   9.242
 7782WAT      O37296   1.742   3.422   3.048
 7782WAT     H137297   1.701   3.505   3.023
 7782WAT     H237298   1.671   3.359   3.049
 7783WAT      O37299   2.830   5.060  12.570
 7783WAT     H137300   2.923   5.077  12.586
 7783WAT     H237301   2.791   5.147  12.561
 7784WAT      O37302   0.860   3.363  12.268
 7784WAT     H137303   0.868   3.298  12.197
 7784WAT     H237304   0.942   3.412  12.263
 7785WAT      O37305   2.032   2.325   1.758
 7785WAT     H137306   2.101   2.297   1.817
 7785WAT     H237307   2.068   2.402   1.713
 7786WAT      O37308   5.175   0.766  10.626
 7786WAT     H137309   5.232   0.807  10.561
 7786WAT     H237310   5.209   0.794  10.710
 7787WAT      O37311   0.962   5.596   3.126
 7787WAT     H137312   1.047   5.600   3.083
 7787WAT     H237313   0.942   5.503   3.132
 7788WAT      O37314   3.572   3.849  10.072
 7788WAT     H137315   3.610   3.864  10.158
 7788WAT     H237316   3.584   3.755  10.056
 7789WAT      O37317   1.710   5.677   7.697
 7789WAT     H137318   1.681   5.676   7.606
 7789WAT     H237319   1.779   5.611   7.701
 7790WAT      O37320   3.619   3.298   9.997
 7790WAT     H137321   3.637   3.278  10.089
 7790WAT     H237322   3.526   3.275   9.986
 7791WAT      O37323   2.165   4.216   8.508
 7791WAT     H137324   2.157   4.234   8.414
 7791WAT     H237325   2.087   4.164   8.529
 7792WAT      O37326   3.119   2.937   1.258
 7792WAT     H137327   3.061   2.990   1.313
 7792WAT     H237328   3.189   2.997   1.233
 7793WAT      O37329   2.278   3.391   9.332
 7793WAT     H137330   2.310   3.385   9.243
 7793WAT     H237331   2.350   3.358   9.386
 7794WAT      O37332   3.190   6.183   2.472
 7794WAT     H137333   3.261   6.137   2.517
 7794WAT     H237334   3.219   6.189   2.381
 7795WAT      O37335   2.156   5.161  12.397
 7795WAT     H137336   2.074   5.157  12.446
 7795WAT     H237337   2.214   5.214  12.452
 7796WAT      O37338   2.420   4.987  10.302
 7796WAT     H137339   2.451   4.938  10.226
 7796WAT     H237340   2.482   4.965  10.371
 7797WAT      O37341   0.021   5.372   1.103
 7797WAT     H137342  -0.022   5.318   1.036
 7797WAT     H237343   0.089   5.420   1.056
 7798WAT      O37344   2.094   1.171  10.501
 7798WAT     H137345   2.008   1.133  10.483
 7798WAT     H237346   2.121   1.208  10.417
 7799WAT      O37347   0.322   5.881   4.883
 7799WAT     H137348   0.366   5.796   4.879
 7799WAT     H237349   0.378   5.934   4.939
 7800WAT      O37350   6.064   0.245   3.035
 7800WAT     H137351   6.131   0.314   3.043
 7800WAT     H237352   6.077   0.209   2.948
 7801WAT      O37353   5.039   6.017   3.314
 7801WAT     H137354   5.127   6.044   3.343
 7801WAT     H237355   5.009   5.956   3.381
 7802WAT      O37356   4.565   1.339   9.441
 7802WAT     H137357   4.529   1.266   9.391
 7802WAT     H237358   4.493   1.402   9.446
 7803WAT      O37359   2.789   4.876   0.578
 7803WAT     H137360   2.697   4.857   0.560
 7803WAT     H237361   2.806   4.959   0.533
 7804WAT      O37362   5.958   1.008   8.199
 7804WAT     H137363   6.040   0.999   8.248
 7804WAT     H237364   5.985   1.019   8.108
 7805WAT      O37365   1.345   3.222   3.607
 7805WAT     H137366   1.384   3.136   3.592
 7805WAT     H237367   1.340   3.230   3.702
 7806WAT      O37368   3.537   4.841  12.365
 7806WAT     H137369   3.550   4.840  12.270
 7806WAT     H237370   3.581   4.762  12.396
 7807WAT      O37371   0.473   4.496   3.535
 7807WAT     H137372   0.442   4.578   3.497
 7807WAT     H237373   0.392   4.449   3.558
 7808WAT      O37374   3.630   4.883   0.945
 7808WAT     H137375   3.721   4.868   0.971
 7808WAT     H237376   3.589   4.796   0.951
 7809WAT      O37377   6.079   0.883   9.660
 7809WAT     H137378   6.019   0.810   9.646
 7809WAT     H237379   6.037   0.938   9.726
 7810WAT      O37380   5.058   2.205   2.485
 7810WAT     H137381   5.000   2.280   2.497
 7810WAT     H237382   5.008   2.143   2.431
 7811WAT      O37383   0.510   5.761   8.278
 7811WAT     H137384   0.417   5.741   8.264
 7811WAT     H237385   0.536   5.808   8.198
 7812WAT      O37386   3.413   4.040  10.335
 7812WAT     H137387   3.505   4.013  10.329
 7812WAT     H237388   3.371   3.997  10.260
 7813WAT      O37389   5.102   2.216   7.773
 7813WAT     H137390   5.082   2.304   7.739
 7813WAT     H237391   5.182   2.191   7.729
 7814WAT      O37392   1.500   0.524   0.851
 7814WAT     H137393   1.540   0.457   0.907
 7814WAT     H237394   1.419   0.547   0.897
 7815WAT      O37395   6.023   0.599  11.373
 7815WAT     H137396   5.973   0.577  11.452
 7815WAT     H237397   6.095   0.652  11.405
 7816WAT      O37398   3.359   2.137   7.922
 7816WAT     H137399   3.434   2.163   7.976
 7816WAT     H237400   3.361   2.041   7.924
 7817WAT      O37401   2.772   5.183   1.181
 7817WAT     H137402   2.766   5.169   1.087
 7817WAT     H237403   2.744   5.274   1.193
 7818WAT      O37404   4.416   0.077  12.499
 7818WAT     H137405   4.468   0.092  12.578
 7818WAT     H237406   4.329   0.110  12.521
 7819WAT      O37407   2.350   1.029  11.798
 7819WAT     H137408   2.320   1.009  11.709
 7819WAT     H237409   2.300   1.107  11.823
 7820WAT      O37410   2.995   5.230   1.448
 7820WAT     H137411   2.931   5.260   1.383
 7820WAT     H237412   2.946   5.168   1.502
 7821WAT      O37413   0.313   5.834   2.944
 7821WAT     H137414   0.323   5.750   2.900
 7821WAT     H237415   0.308   5.898   2.873
 7822WAT      O37416   4.841   5.391   1.980
 7822WAT     H137417   4.841   5.332   2.055
 7822WAT     H237418   4.840   5.478   2.018
 7823WAT      O37419   0.766   1.954   8.226
 7823WAT     H137420   0.764   2.019   8.155
 7823WAT     H237421   0.728   1.875   8.188
 7824WAT      O37422   0.951   5.319   7.754
 7824WAT     H137423   0.942   5.371   7.834
 7824WAT     H237424   1.042   5.288   7.755
 7825WAT      O37425   2.698   2.178   3.866
 7825WAT     H137426   2.771   2.160   3.925
 7825WAT     H237427   2.737   2.183   3.779
 7826WAT      O37428   1.313   4.744   2.743
 7826WAT     H137429   1.357   4.828   2.753
 7826WAT     H237430   1.233   4.752   2.795
 7827WAT      O37431   0.427   2.976  11.299
 7827WAT     H137432   0.371   2.968  11.222
 7827WAT     H237433   0.503   3.024  11.269
 7828WAT      O37434   0.379   4.130   3.000
 7828WAT     H137435   0.346   4.203   3.052
 7828WAT     H237436   0.304   4.071   2.992
 7829WAT      O37437   1.473   5.242   0.870
 7829WAT     H137438   1.485   5.161   0.919
 7829WAT     H237439   1.403   5.289   0.917
 7830WAT      O37440   0.794   2.791   0.180
 7830WAT     H137441   0.779   2.880   0.150
 7830WAT     H237442   0.706   2.754   0.192
 7831WAT      O37443   5.983   2.934   8.624
 7831WAT     H137444   5.922   2.914   8.694
 7831WAT     H237445   6.031   3.011   8.653
 7832WAT      O37446   2.117   3.336   4.026
 7832WAT     H137447   2.079   3.249   4.017
 7832WAT     H237448   2.166   3.349   3.944
 7833WAT      O37449   1.536   0.386   8.724
 7833WAT     H137450   1.543   0.358   8.633
 7833WAT     H237451   1.442   0.397   8.738
 7834WAT      O37452   3.444   0.437  12.555
 7834WAT     H137453   3.405   0.478  12.477
 7834WAT     H237454   3.539   0.446  12.541
 7835WAT      O37455   0.414   0.513  11.090
 7835WAT     H137456   0.398   0.423  11.064
 7835WAT     H237457   0.381   0.566  11.017
 7836WAT      O37458   2.451   1.892   1.049
 7836WAT     H137459   2.437   1.932   0.963
 7836WAT     H237460   2.376   1.834   1.060
 7837WAT      O37461   0.288   1.107   9.212
 7837WAT     H137462   0.339   1.037   9.171
 7837WAT     H237463   0.234   1.063   9.277
 7838WAT      O37464   6.193   1.170   2.607
 7838WAT     H137465   6.286   1.151   2.617
 7838WAT     H237466   6.187   1.266   2.610
 7839WAT      O37467   3.664   3.878   8.952
 7839WAT     H137468   3.672   3.965   8.912
 7839WAT     H237469   3.607   3.830   8.893
 7840WAT      O37470   3.650   4.280  11.725
 7840WAT     H137471   3.661   4.235  11.809
 7840WAT     H237472   3.687   4.220  11.660
 7841WAT      O37473   1.918   3.653   0.071
 7841WAT     H137474   1.829   3.684   0.055
 7841WAT     H237475   1.966   3.675  -0.009
 7842WAT      O37476   2.166   4.852  11.314
 7842WAT     H137477   2.244   4.822  11.268
 7842WAT     H237478   2.095   4.843  11.250
 7843WAT      O37479   2.355   0.902  11.020
 7843WAT     H137480   2.369   0.951  10.939
 7843WAT     H237481   2.279   0.848  11.002
 7844WAT      O37482   1.183   3.863   4.262
 7844WAT     H137483   1.168   3.776   4.224
 7844WAT     H237484   1.214   3.846   4.351
 7845WAT      O37485   2.389   1.318   1.246
 7845WAT     H137486   2.400   1.400   1.197
 7845WAT     H237487   2.295   1.313   1.264
 7846WAT      O37488   0.051   5.324   3.563
 7846WAT     H137489   0.008   5.344   3.480
 7846WAT     H237490  -0.018   5.332   3.629
 7847WAT      O37491   3.150   3.202   7.847
 7847WAT     H137492   3.100   3.180   7.768
 7847WAT     H237493   3.214   3.131   7.854
 7848WAT      O37494   2.647   2.383  10.220
 7848WAT     H137495   2.664   2.320  10.149
 7848WAT     H237496   2.574   2.345  10.268
 7849WAT      O37497   2.804   5.971   0.963
 7849WAT     H137498   2.829   6.014   1.045
 7849WAT     H237499   2.718   5.933   0.981
 7850WAT      O37500   2.127   0.998   7.469
 7850WAT     H137501   2.195   1.023   7.531
 7850WAT     H237502   2.056   1.060   7.485
 7851WAT      O37503   4.113   2.915   3.929
 7851WAT     H137504   4.116   2.820   3.916
 7851WAT     H237505   4.186   2.933   3.988
 7852WAT      O37506   3.860   4.573   9.294
 7852WAT     H137507   3.934   4.588   9.353
 7852WAT     H237508   3.791   4.537   9.350
 7853WAT      O37509   3.237   6.158   9.458
 7853WAT     H137510   3.167   6.209   9.498
 7853WAT     H237511   3.280   6.219   9.399
 7854WAT      O37512   3.557   4.285   9.005
 7854WAT     H137513   3.541   4.210   8.948
 7854WAT     H237514   3.577   4.247   9.090
 7855WAT      O37515   5.239   3.923  11.592
 7855WAT     H137516   5.205   3.885  11.673
 7855WAT     H237517   5.320   3.966  11.617
 7856WAT      O37518   2.954   4.086  11.460
 7856WAT     H137519   3.041   4.106  11.424
 7856WAT     H237520   2.971   4.022  11.529
 7857WAT      O37521   1.065   1.763   0.536
 7857WAT     H137522   1.127   1.825   0.576
 7857WAT     H237523   0.982   1.811   0.533
 7858WAT      O37524   0.380   3.717   2.998
 7858WAT     H137525   0.426   3.776   2.937
 7858WAT     H237526   0.288   3.723   2.972
 7859WAT      O37527   3.612   3.121   8.370
 7859WAT     H137528   3.629   3.141   8.278
 7859WAT     H237529   3.638   3.201   8.417
 7860WAT      O37530   4.694   3.301   0.025
 7860WAT     H137531   4.677   3.387  -0.012
 7860WAT     H237532   4.786   3.304   0.053
 7861WAT      O37533   6.166   3.404  12.035
 7861WAT     H137534   6.249   3.447  12.054
 7861WAT     H237535   6.105   3.438  12.100
 7862WAT      O37536   4.692   1.437   2.210
 7862WAT     H137537   4.691   1.532   2.205
 7862WAT     H237538   4.744   1.409   2.135
 7863WAT      O37539   0.502   5.693  10.316
 7863WAT     H137540   0.513   5.605  10.353
 7863WAT     H237541   0.434   5.734  10.370
 7864WAT      O37542   5.609   4.885   9.206
 7864WAT     H137543   5.539   4.838   9.250
 7864WAT     H237544   5.639   4.949   9.270
 7865WAT      O37545   5.378   4.385   9.642
 7865WAT     H137546   5.292   4.373   9.681
 7865WAT     H237547   5.361   4.434   9.561
 7866WAT      O37548   4.607   3.513  10.752
 7866WAT     H137549   4.585   3.545  10.665
 7866WAT     H237550   4.674   3.446  10.737
 7867WAT      O37551   5.296   0.612   2.836
 7867WAT     H137552   5.299   0.684   2.899
 7867WAT     H237553   5.251   0.649   2.760
 7868WAT      O37554   2.750   4.369  10.473
 7868WAT     H137555   2.770   4.277  10.484
 7868WAT     H237556   2.829   4.407  10.434
 7869WAT      O37557   4.349   1.129  11.744
 7869WAT     H137558   4.365   1.212  11.790
 7869WAT     H237559   4.435   1.103  11.710
 7870WAT      O37560   3.116   4.186   3.665
 7870WAT     H137561   3.155   4.122   3.724
 7870WAT     H237562   3.131   4.271   3.708
 7871WAT      O37563   3.109   2.183   1.192
 7871WAT     H137564   3.157   2.237   1.255
 7871WAT     H237565   3.019   2.214   1.198
 7872WAT      O37566   1.515   4.359   0.903
 7872WAT     H137567   1.457   4.386   0.974
 7872WAT     H237568   1.558   4.440   0.876
 7873WAT      O37569   0.339   5.870   1.227
 7873WAT     H137570   0.294   5.815   1.162
 7873WAT     H237571   0.336   5.819   1.308
 7874WAT      O37572   0.237   1.519  12.629
 7874WAT     H137573   0.326   1.486  12.622
 7874WAT     H237574   0.228   1.544  12.721
 7875WAT      O37575   5.410   4.734   9.035
 7875WAT     H137576   5.423   4.675   8.960
 7875WAT     H237577   5.407   4.821   8.996
 7876WAT      O37578   0.987   2.654  11.120
 7876WAT     H137579   0.996   2.619  11.031
 7876WAT     H237580   0.897   2.686  11.124
 7877WAT      O37581   2.259   4.159   9.321
 7877WAT     H137582   2.330   4.113   9.365
 7877WAT     H237583   2.184   4.151   9.380
 7878WAT      O37584   1.268   5.286  10.357
 7878WAT     H137585   1.225   5.209  10.319
 7878WAT     H237586   1.348   5.296  10.306
 7879WAT      O37587   6.168   3.175   8.924
 7879WAT     H137588   6.078   3.187   8.956
 7879WAT     H237589   6.158   3.162   8.830
 7880WAT      O37590   2.865   1.279   0.714
 7880WAT     H137591   2.904   1.347   0.770
 7880WAT     H237592   2.781   1.260   0.756
 7881WAT      O37593   0.773   6.125  10.686
 7881WAT     H137594   0.781   6.208  10.639
 7881WAT     H237595   0.697   6.082  10.645
 7882WAT      O37596   4.270   0.593   8.775
 7882WAT     H137597   4.276   0.643   8.694
 7882WAT     H237598   4.213   0.645   8.831
 7883WAT      O37599   3.835   1.588  10.869
 7883WAT     H137600   3.781   1.560  10.943
 7883WAT     H237601   3.782   1.569  10.792
 7884WAT      O37602   3.659   5.243   0.889
 7884WAT     H137603   3.633   5.321   0.938
 7884WAT     H237604   3.751   5.228   0.915
 7885WAT      O37605   2.101   2.034  10.967
 7885WAT     H137606   2.180   2.064  10.923
 7885WAT     H237607   2.034   2.033  10.898
 7886WAT      O37608   1.243   6.033   7.421
 7886WAT     H137609   1.318   5.999   7.469
 7886WAT     H237610   1.186   5.957   7.407
 7887WAT      O37611   5.395   6.112   2.495
 7887WAT     H137612   5.388   6.188   2.554
 7887WAT     H237613   5.357   6.142   2.413
 7888WAT      O37614   4.102   1.051   9.965
 7888WAT     H137615   4.099   1.098  10.049
 7888WAT     H237616   4.017   1.007   9.960
 7889WAT      O37617   6.141   3.876  11.792
 7889WAT     H137618   6.190   3.946  11.834
 7889WAT     H237619   6.199   3.844  11.723
 7890WAT      O37620   0.259   0.270  11.047
 7890WAT     H137621   0.249   0.301  10.957
 7890WAT     H237622   0.189   0.206  11.059
 7891WAT      O37623   5.727   2.734   3.583
 7891WAT     H137624   5.676   2.796   3.635
 7891WAT     H237625   5.663   2.696   3.523
 7892WAT      O37626   3.656   0.554   8.717
 7892WAT     H137627   3.592   0.491   8.752
 7892WAT     H237628   3.605   0.609   8.657
 7893WAT      O37629   5.025   5.812   1.921
 7893WAT     H137630   5.051   5.778   1.835
 7893WAT     H237631   4.945   5.862   1.904
 7894WAT      O37632   3.930   0.552   3.806
 7894WAT     H137633   3.947   0.486   3.739
 7894WAT     H237634   3.899   0.503   3.881
 7895WAT      O37635   5.175   3.137  10.070
 7895WAT     H137636   5.208   3.072  10.132
 7895WAT     H237637   5.185   3.096   9.984
 7896WAT      O37638   2.433   1.964   1.406
 7896WAT     H137639   2.374   1.990   1.336
 7896WAT     H237640   2.418   1.870   1.416
 7897WAT      O37641   2.303   0.522   4.297
 7897WAT     H137642   2.309   0.430   4.272
 7897WAT     H237643   2.215   0.548   4.272
 7898WAT      O37644   5.137   3.134   0.888
 7898WAT     H137645   5.225   3.154   0.857
 7898WAT     H237646   5.145   3.048   0.928
 7899WAT      O37647   5.705   5.027   4.505
 7899WAT     H137648   5.751   5.110   4.509
 7899WAT     H237649   5.774   4.962   4.491
 7900WAT      O37650   2.876   2.900   4.718
 7900WAT     H137651   2.816   2.943   4.656
 7900WAT     H237652   2.931   2.971   4.751
 7901WAT      O37653   6.060   6.138   3.505
 7901WAT     H137654   5.971   6.125   3.472
 7901WAT     H237655   6.061   6.090   3.589
 7902WAT      O37656   1.496   3.992   0.356
 7902WAT     H137657   1.408   4.028   0.345
 7902WAT     H237658   1.525   4.025   0.441
 7903WAT      O37659   3.457   3.851   2.473
 7903WAT     H137660   3.482   3.943   2.460
 7903WAT     H237661   3.530   3.813   2.522
 7904WAT      O37662   5.968   1.174   0.948
 7904WAT     H137663   5.937   1.085   0.929
 7904WAT     H237664   5.890   1.229   0.943
 7905WAT      O37665   0.525   2.536   9.392
 7905WAT     H137666   0.500   2.466   9.454
 7905WAT     H237667   0.441   2.574   9.365
 7906WAT      O37668   4.700   1.965   1.560
 7906WAT     H137669   4.699   1.870   1.577
 7906WAT     H237670   4.623   1.998   1.606
 7907WAT      O37671   0.633   1.871   3.654
 7907WAT     H137672   0.654   1.897   3.743
 7907WAT     H237673   0.708   1.903   3.602
 7908WAT      O37674   5.446   0.740   9.621
 7908WAT     H137675   5.385   0.696   9.680
 7908WAT     H237676   5.429   0.701   9.535
 7909WAT      O37677   1.243   4.991   0.241
 7909WAT     H137678   1.222   5.062   0.181
 7909WAT     H237679   1.179   4.999   0.311
 7910WAT      O37680   4.119   1.461   8.084
 7910WAT     H137681   4.111   1.381   8.135
 7910WAT     H237682   4.036   1.469   8.037
 7911WAT      O37683   3.659   0.235   0.523
 7911WAT     H137684   3.579   0.198   0.561
 7911WAT     H237685   3.726   0.220   0.590
 7912WAT      O37686   4.252   4.588   2.959
 7912WAT     H137687   4.313   4.661   2.966
 7912WAT     H237688   4.252   4.566   2.865
 7913WAT      O37689   1.811   1.208   9.548
 7913WAT     H137690   1.773   1.207   9.460
 7913WAT     H237691   1.898   1.245   9.535
 7914WAT      O37692   0.113   5.122   4.225
 7914WAT     H137693   0.023   5.146   4.248
 7914WAT     H237694   0.155   5.103   4.309
 7915WAT      O37695   5.352   4.963   8.474
 7915WAT     H137696   5.337   5.046   8.518
 7915WAT     H237697   5.274   4.951   8.419
 7916WAT      O37698   3.747   2.064  11.404
 7916WAT     H137699   3.697   2.093  11.480
 7916WAT     H237700   3.723   2.125  11.334
 7917WAT      O37701   4.451   3.013   0.614
 7917WAT     H137702   4.411   2.936   0.656
 7917WAT     H237703   4.381   3.048   0.558
 7918WAT      O37704   5.864   5.194   9.057
 7918WAT     H137705   5.918   5.120   9.084
 7918WAT     H237706   5.911   5.271   9.091
 7919WAT      O37707   4.506   2.345   4.749
 7919WAT     H137708   4.567   2.336   4.822
 7919WAT     H237709   4.422   2.316   4.785
 7920WAT      O37710   5.628   4.836  11.007
 7920WAT     H137711   5.691   4.892  11.052
 7920WAT     H237712   5.675   4.755  10.989
 7921WAT      O37713   4.989   3.546   9.106
 7921WAT     H137714   5.013   3.507   9.022
 7921WAT     H237715   4.897   3.569   9.097
 7922WAT      O37716   1.682   1.229   3.442
 7922WAT     H137717   1.749   1.238   3.375
 7922WAT     H237718   1.727   1.189   3.516
 7923WAT      O37719   5.981   5.025   9.235
 7923WAT     H137720   6.000   4.982   9.318
 7923WAT     H237721   5.993   5.118   9.253
 7924WAT      O37722   4.190   6.046  12.578
 7924WAT     H137723   4.266   5.998  12.610
 7924WAT     H237724   4.185   6.124  12.634
 7925WAT      O37725   3.717   1.001   3.855
 7925WAT     H137726   3.675   0.920   3.884
 7925WAT     H237727   3.769   0.975   3.778
 7926WAT      O37728   5.791   3.502   3.129
 7926WAT     H137729   5.817   3.572   3.069
 7926WAT     H237730   5.700   3.524   3.151
 7927WAT      O37731   0.142   4.160   3.869
 7927WAT     H137732   0.115   4.213   3.794
 7927WAT     H237733   0.060   4.130   3.907
 7928WAT      O37734   4.843   0.763   1.819
 7928WAT     H137735   4.795   0.812   1.886
 7928WAT     H237736   4.934   0.790   1.831
 7929WAT      O37737   5.882   3.167   3.794
 7929WAT     H137738   5.844   3.155   3.881
 7929WAT     H237739   5.822   3.227   3.750
 7930WAT      O37740   1.712   5.248   9.504
 7930WAT     H137741   1.621   5.276   9.510
 7930WAT     H237742   1.707   5.156   9.476
 7931WAT      O37743   2.981   0.054   7.495
 7931WAT     H137744   3.073   0.056   7.519
 7931WAT     H237745   2.942   0.126   7.544
 7932WAT      O37746   3.030   4.275   2.416
 7932WAT     H137747   3.082   4.305   2.341
 7932WAT     H237748   2.939   4.288   2.388
 7933WAT      O37749   4.358   4.024   8.483
 7933WAT     H137750   4.300   4.097   8.465
 7933WAT     H237751   4.352   4.012   8.578
 7934WAT      O37752   1.496   5.657  10.594
 7934WAT     H137753   1.540   5.609  10.665
 7934WAT     H237754   1.561   5.658  10.524
 7935WAT      O37755   2.261   0.192  12.467
 7935WAT     H137756   2.310   0.157  12.542
 7935WAT     H237757   2.171   0.196  12.497
 7936WAT      O37758   4.885   3.366   1.242
 7936WAT     H137759   4.910   3.274   1.233
 7936WAT     H237760   4.918   3.392   1.328
 7937WAT      O37761   1.523   3.718   0.960
 7937WAT     H137762   1.498   3.726   0.868
 7937WAT     H237763   1.537   3.808   0.990
 7938WAT      O37764   1.166   2.558   9.305
 7938WAT     H137765   1.082   2.539   9.347
 7938WAT     H237766   1.143   2.591   9.218
 7939WAT      O37767   3.055   5.036   0.876
 7939WAT     H137768   3.107   5.064   0.951
 7939WAT     H237769   3.071   4.942   0.869
 7940WAT      O37770   5.666   5.147   0.994
 7940WAT     H137771   5.681   5.126   1.086
 7940WAT     H237772   5.746   5.117   0.950
 7941WAT      O37773   5.211   1.191  -0.012
 7941WAT     H137774   5.140   1.196   0.051
 7941WAT     H237775   5.254   1.277  -0.007
 7942WAT      O37776   3.925   4.512   8.453
 7942WAT     H137777   3.949   4.592   8.406
 7942WAT     H237778   3.993   4.502   8.520
 7943WAT      O37779   4.912   5.613  11.120
 7943WAT     H137780   4.991   5.586  11.073
 7943WAT     H237781   4.840   5.579  11.067
 7944WAT      O37782   3.432   3.241   1.489
 7944WAT     H137783   3.418   3.187   1.566
 7944WAT     H237784   3.487   3.314   1.519
 7945WAT      O37785   5.358   0.378   3.662
 7945WAT     H137786   5.416   0.390   3.587
 7945WAT     H237787   5.321   0.465   3.678
 7946WAT      O37788   2.499   5.292  10.423
 7946WAT     H137789   2.510   5.320  10.514
 7946WAT     H237790   2.491   5.197  10.428
 7947WAT      O37791   0.467   2.428  10.059
 7947WAT     H137792   0.447   2.458   9.970
 7947WAT     H237793   0.511   2.344  10.047
 7948WAT      O37794   2.314   0.416   3.380
 7948WAT     H137795   2.288   0.346   3.320
 7948WAT     H237796   2.303   0.377   3.467
 7949WAT      O37797   1.772   4.028  10.608
 7949WAT     H137798   1.827   3.950  10.607
 7949WAT     H237799   1.738   4.035  10.519
 7950WAT      O37800   4.774   4.691   7.744
 7950WAT     H137801   4.703   4.711   7.683
 7950WAT     H237802   4.788   4.596   7.734
 7951WAT      O37803   0.033   2.507   2.318
 7951WAT     H137804   0.088   2.431   2.338
 7951WAT     H237805  -0.055   2.471   2.308
 7952WAT      O37806   0.887   4.184   2.868
 7952WAT     H137807   0.850   4.257   2.916
 7952WAT     H237808   0.868   4.203   2.776
 7953WAT      O37809   1.830   4.683  11.402
 7953WAT     H137810   1.885   4.723  11.335
 7953WAT     H237811   1.755   4.741  11.409
 7954WAT      O37812   3.188   1.595  11.471
 7954WAT     H137813   3.190   1.503  11.499
 7954WAT     H237814   3.169   1.644  11.551
 7955WAT      O37815   3.133   0.174  10.436
 7955WAT     H137816   3.077   0.174  10.513
 7955WAT     H237817   3.199   0.106  10.454
 7956WAT      O37818   1.508   0.402  10.652
 7956WAT     H137819   1.560   0.441  10.582
 7956WAT     H237820   1.505   0.309  10.631
 7957WAT      O37821   3.687   0.249  11.421
 7957WAT     H137822   3.597   0.251  11.389
 7957WAT     H237823   3.740   0.236  11.343
 7958WAT      O37824   4.084   2.646   8.475
 7958WAT     H137825   4.025   2.572   8.489
 7958WAT     H237826   4.028   2.723   8.485
 7959WAT      O37827   0.352   5.530   3.786
 7959WAT     H137828   0.297   5.561   3.713
 7959WAT     H237829   0.397   5.454   3.750
 7960WAT      O37830   2.313   5.338   9.345
 7960WAT     H137831   2.299   5.353   9.438
 7960WAT     H237832   2.404   5.363   9.330
 7961WAT      O37833   4.899   4.812   3.725
 7961WAT     H137834   4.971   4.748   3.731
 7961WAT     H237835   4.943   4.897   3.719
 7962WAT      O37836   0.423   4.351   3.987
 7962WAT     H137837   0.475   4.407   3.929
 7962WAT     H237838   0.486   4.290   4.025
 7963WAT      O37839   6.168   0.550   8.200
 7963WAT     H137840   6.074   0.531   8.197
 7963WAT     H237841   6.209   0.468   8.172
 7964WAT      O37842   3.481   5.764  11.025
 7964WAT     H137843   3.413   5.707  10.988
 7964WAT     H237844   3.433   5.839  11.059
 7965WAT      O37845   5.852   3.565  11.330
 7965WAT     H137846   5.845   3.544  11.423
 7965WAT     H237847   5.770   3.532  11.292
 7966WAT      O37848   0.397   3.734  12.240
 7966WAT     H137849   0.454   3.658  12.249
 7966WAT     H237850   0.451   3.808  12.271
 7967WAT      O37851   0.173   0.067   2.242
 7967WAT     H137852   0.264   0.039   2.252
 7967WAT     H237853   0.159   0.128   2.315
 7968WAT      O37854   3.495   6.166   7.724
 7968WAT     H137855   3.490   6.098   7.791
 7968WAT     H237856   3.419   6.150   7.668
 7969WAT      O37857   4.104   4.214   2.339
 7969WAT     H137858   4.072   4.288   2.391
 7969WAT     H237859   4.053   4.139   2.370
 7970WAT      O37860   4.552   5.572   1.068
 7970WAT     H137861   4.474   5.628   1.058
 7970WAT     H237862   4.614   5.627   1.116
 7971WAT      O37863   2.495   4.359   0.863
 7971WAT     H137864   2.568   4.403   0.819
 7971WAT     H237865   2.537   4.298   0.924
 7972WAT      O37866   2.731   6.188   0.533
 7972WAT     H137867   2.685   6.127   0.590
 7972WAT     H237868   2.688   6.272   0.547
 7973WAT      O37869   1.362   0.924   9.744
 7973WAT     H137870   1.288   0.971   9.783
 7973WAT     H237871   1.366   0.957   9.654
 7974WAT      O37872   5.659   3.827   2.713
 7974WAT     H137873   5.706   3.850   2.633
 7974WAT     H237874   5.702   3.878   2.782
 7975WAT      O37875   1.286   0.567  10.803
 7975WAT     H137876   1.347   0.625  10.849
 7975WAT     H237877   1.342   0.520  10.740
 7976WAT      O37878   6.026   1.544   9.152
 7976WAT     H137879   6.066   1.544   9.065
 7976WAT     H237880   6.088   1.496   9.207
 7977WAT      O37881   2.676   2.515  11.998
 7977WAT     H137882   2.598   2.459  12.000
 7977WAT     H237883   2.747   2.456  11.972
 7978WAT      O37884   4.156   3.299   2.507
 7978WAT     H137885   4.247   3.273   2.493
 7978WAT     H237886   4.108   3.216   2.512
 7979WAT      O37887   0.051   2.199   4.853
 7979WAT     H137888  -0.037   2.197   4.814
 7979WAT     H237889   0.096   2.270   4.807
 7980WAT      O37890   3.584   3.078  11.627
 7980WAT     H137891   3.669   3.092  11.585
 7980WAT     H237892   3.520   3.104  11.561
 7981WAT      O37893   4.098   2.242   1.020
 7981WAT     H137894   4.166   2.247   1.087
 7981WAT     H237895   4.073   2.149   1.019
 7982WAT      O37896   4.498   2.522   1.312
 7982WAT     H137897   4.406   2.538   1.295
 7982WAT     H237898   4.500   2.438   1.359
 7983WAT      O37899   1.261   0.255   0.913
 7983WAT     H137900   1.323   0.184   0.931
 7983WAT     H237901   1.180   0.210   0.887
 7984WAT      O37902   0.587   5.031   0.599
 7984WAT     H137903   0.638   5.041   0.679
 7984WAT     H237904   0.500   5.065   0.621
 7985WAT      O37905   0.306   1.918   3.196
 7985WAT     H137906   0.357   1.850   3.153
 7985WAT     H237907   0.215   1.891   3.185
 7986WAT      O37908   6.023   2.666   3.182
 7986WAT     H137909   6.009   2.707   3.267
 7986WAT     H237910   6.032   2.739   3.121
 7987WAT      O37911   3.827   1.936   9.107
 7987WAT     H137912   3.916   1.901   9.113
 7987WAT     H237913   3.834   2.024   9.144
 7988WAT      O37914   5.456   1.385   9.516
 7988WAT     H137915   5.384   1.390   9.453
 7988WAT     H237916   5.473   1.291   9.527
 7989WAT      O37917   1.388   5.396   3.530
 7989WAT     H137918   1.479   5.372   3.545
 7989WAT     H237919   1.372   5.470   3.588
 7990WAT      O37920   5.138   4.904  11.580
 7990WAT     H137921   5.068   4.914  11.645
 7990WAT     H237922   5.093   4.913  11.495
 7991WAT      O37923   4.920   2.316   3.984
 7991WAT     H137924   4.864   2.280   3.915
 7991WAT     H237925   4.872   2.391   4.017
 7992WAT      O37926   4.376   1.464   1.735
 7992WAT     H137927   4.296   1.431   1.694
 7992WAT     H237928   4.369   1.559   1.730
 7993WAT      O37929   6.148   1.483   3.356
 7993WAT     H137930   6.212   1.499   3.286
 7993WAT     H237931   6.182   1.406   3.401
 7994WAT      O37932   1.816   5.910  11.484
 7994WAT     H137933   1.799   5.817  11.499
 7994WAT     H237934   1.791   5.924  11.393
 7995WAT      O37935   1.436   4.964  11.193
 7995WAT     H137936   1.459   5.057  11.200
 7995WAT     H237937   1.405   4.954  11.103
 7996WAT      O37938   2.390   1.395   0.168
 7996WAT     H137939   2.394   1.490   0.176
 7996WAT     H237940   2.403   1.363   0.258
 7997WAT      O37941   4.974   6.192  10.893
 7997WAT     H137942   4.920   6.225  10.821
 7997WAT     H237943   4.911   6.166  10.960
 7998WAT      O37944   0.896   0.606   3.464
 7998WAT     H137945   0.898   0.622   3.558
 7998WAT     H237946   0.906   0.693   3.425
 7999WAT      O37947   5.596   3.063   2.781
 7999WAT     H137948   5.595   2.967   2.785
 7999WAT     H237949   5.529   3.084   2.716
 8000WAT      O37950   3.584   6.208   0.804
 8000WAT     H137951   3.564   6.155   0.727
 8000WAT     H237952   3.630   6.148   0.863
 8001WAT      O37953   0.632   2.727  10.014
 8001WAT     H137954   0.716   2.757   9.978
 8001WAT     H237955   0.570   2.738   9.942
 8002WAT      O37956   4.902   3.427  11.157
 8002WAT     H137957   4.812   3.401  11.180
 8002WAT     H237958   4.913   3.397  11.067
 8003WAT      O37959   2.497   2.357   4.789
 8003WAT     H137960   2.428   2.423   4.790
 8003WAT     H237961   2.494   2.320   4.701
 8004WAT      O37962   6.057   4.066   9.767
 8004WAT     H137963   6.113   4.141   9.785
 8004WAT     H237964   5.968   4.102   9.770
 8005WAT      O37965   1.033   3.487   2.072
 8005WAT     H137966   0.976   3.554   2.111
 8005WAT     H237967   0.976   3.442   2.009
 8006WAT      O37968   3.793   3.022   4.869
 8006WAT     H137969   3.812   2.962   4.797
 8006WAT     H237970   3.877   3.031   4.915
 8007WAT      O37971   0.887   0.738   3.717
 8007WAT     H137972   0.795   0.756   3.697
 8007WAT     H237973   0.885   0.696   3.803
 8008WAT      O37974   1.830   3.814   8.491
 8008WAT     H137975   1.821   3.721   8.513
 8008WAT     H237976   1.790   3.822   8.405
 8009WAT      O37977   0.457   2.580   9.809
 8009WAT     H137978   0.423   2.535   9.731
 8009WAT     H237979   0.528   2.634   9.776
 8010WAT      O37980   5.480   3.182   8.686
 8010WAT     H137981   5.466   3.089   8.664
 8010WAT     H237982   5.549   3.181   8.752
 8011WAT      O37983   0.075   2.751  10.109
 8011WAT     H137984   0.113   2.707  10.033
 8011WAT     H237985   0.039   2.832  10.073
 8012WAT      O37986   2.868   5.158  11.965
 8012WAT     H137987   2.813   5.080  11.954
 8012WAT     H237988   2.808   5.225  12.000
 8013WAT      O37989   4.732   3.075  12.346
 8013WAT     H137990   4.824   3.088  12.365
 8013WAT     H237991   4.690   3.159  12.366
 8014WAT      O37992   3.726   1.229  10.378
 8014WAT     H137993   3.701   1.154  10.433
 8014WAT     H237994   3.728   1.193  10.289
 8015WAT      O37995   3.555   3.328   8.805
 8015WAT     H137996   3.575   3.368   8.721
 8015WAT     H237997   3.464   3.299   8.796
 8016WAT      O37998   3.702   2.955   4.136
 8016WAT     H137999   3.719   3.021   4.204
 8016WAT     H238000   3.612   2.926   4.154
 8017WAT      O38001   3.902   0.212   9.963
 8017WAT     H138002   3.949   0.222  10.046
 8017WAT     H238003   3.816   0.177   9.989
 8018WAT      O38004   3.011   1.058   9.430
 8018WAT     H138005   2.930   1.010   9.452
 8018WAT     H238006   2.990   1.149   9.448
 8019WAT      O38007  -0.011   4.568  11.279
 8019WAT     H138008  -0.012   4.592  11.186
 8019WAT     H238009   0.024   4.479  11.280
 8020WAT      O38010   1.425   5.978   0.645
 8020WAT     H138011   1.414   5.885   0.625
 8020WAT     H238012   1.518   5.995   0.629
 8021WAT      O38013   4.910   2.380  12.151
 8021WAT     H138014   4.999   2.413  12.139
 8021WAT     H238015   4.876   2.429  12.225
 8022WAT      O38016   5.269   3.557   9.086
 8022WAT     H138017   5.305   3.611   9.016
 8022WAT     H238018   5.177   3.582   9.091
 8023WAT      O38019   0.782   0.439   4.323
 8023WAT     H138020   0.719   0.371   4.348
 8023WAT     H238021   0.769   0.508   4.387
 8024WAT      O38022   2.877   3.171  10.937
 8024WAT     H138023   2.955   3.225  10.949
 8024WAT     H238024   2.906   3.097  10.884
 8025WAT      O38025   1.199   1.289   3.362
 8025WAT     H138026   1.281   1.335   3.346
 8025WAT     H238027   1.132   1.345   3.323
 8026WAT      O38028   0.265   2.559  12.654
 8026WAT     H138029   0.350   2.580  12.616
 8026WAT     H238030   0.242   2.474  12.617
 8027WAT      O38031   1.755   3.803   3.326
 8027WAT     H138032   1.778   3.839   3.412
 8027WAT     H238033   1.802   3.720   3.320
 8028WAT      O38034   2.065   4.342   2.466
 8028WAT     H138035   2.090   4.429   2.434
 8028WAT     H238036   2.128   4.283   2.425
 8029WAT      O38037   4.639   0.578   4.315
 8029WAT     H138038   4.625   0.661   4.270
 8029WAT     H238039   4.572   0.520   4.280
 8030WAT      O38040   6.161   3.804   0.066
 8030WAT     H138041   6.142   3.723   0.019
 8030WAT     H238042   6.076   3.845   0.079
 8031WAT      O38043   3.013   5.834   8.969
 8031WAT     H138044   3.105   5.858   8.954
 8031WAT     H238045   2.981   5.808   8.882
 8032WAT      O38046   6.123   1.172  10.787
 8032WAT     H138047   6.154   1.259  10.814
 8032WAT     H238048   6.202   1.127  10.758
 8033WAT      O38049   3.688   0.971   8.623
 8033WAT     H138050   3.650   1.020   8.697
 8033WAT     H238051   3.744   0.906   8.664
 8034WAT      O38052   2.948   3.312   0.514
 8034WAT     H138053   2.982   3.382   0.570
 8034WAT     H238054   2.985   3.329   0.428
 8035WAT      O38055   4.263   2.792   7.664
 8035WAT     H138056   4.261   2.863   7.728
 8035WAT     H238057   4.330   2.733   7.696
 8036WAT      O38058   5.286   3.993  10.017
 8036WAT     H138059   5.333   4.018   9.938
 8036WAT     H238060   5.314   4.058  10.083
 8037WAT      O38061   3.967   1.320   9.285
 8037WAT     H138062   3.973   1.224   9.291
 8037WAT     H238063   3.893   1.343   9.341
 8038WAT      O38064   1.452   3.827   4.198
 8038WAT     H138065   1.364   3.861   4.215
 8038WAT     H238066   1.463   3.756   4.261
 8039WAT      O38067   0.823   5.701   9.681
 8039WAT     H138068   0.859   5.709   9.770
 8039WAT     H238069   0.747   5.760   9.682
 8040WAT      O38070   5.363   4.080   1.448
 8040WAT     H138071   5.342   4.049   1.360
 8040WAT     H238072   5.298   4.037   1.504
 8041WAT      O38073   5.558   3.927   1.293
 8041WAT     H138074   5.617   3.948   1.221
 8041WAT     H238075   5.538   4.011   1.333
 8042WAT      O38076   5.526   1.816   8.931
 8042WAT     H138077   5.448   1.761   8.947
 8042WAT     H238078   5.597   1.753   8.918
 8043WAT      O38079   5.761   4.248  10.886
 8043WAT     H138080   5.832   4.289  10.836
 8043WAT     H238081   5.682   4.272  10.838
 8044WAT      O38082   6.172   3.197   2.740
 8044WAT     H138083   6.112   3.145   2.686
 8044WAT     H238084   6.258   3.156   2.726
 8045WAT      O38085   3.296   0.837  10.549
 8045WAT     H138086   3.251   0.787  10.618
 8045WAT     H238087   3.239   0.829  10.473
 8046WAT      O38088   6.200   1.700  12.269
 8046WAT     H138089   6.227   1.671  12.182
 8046WAT     H238090   6.116   1.744  12.255
 8047WAT      O38091   2.864   6.147  12.291
 8047WAT     H138092   2.891   6.149  12.382
 8047WAT     H238093   2.779   6.104  12.292
 8048WAT      O38094   1.136   0.315   3.253
 8048WAT     H138095   1.127   0.392   3.310
 8048WAT     H238096   1.166   0.351   3.170
 8049WAT      O38097   5.000   5.713   3.102
 8049WAT     H138098   4.939   5.645   3.075
 8049WAT     H238099   4.954   5.759   3.173
 8050WAT      O38100   2.894   2.944   9.504
 8050WAT     H138101   2.866   2.957   9.594
 8050WAT     H238102   2.846   3.010   9.453
 8051WAT      O38103   6.183   1.159   9.340
 8051WAT     H138104   6.116   1.152   9.409
 8051WAT     H238105   6.249   1.095   9.364
 8052WAT      O38106   4.647   4.912  10.499
 8052WAT     H138107   4.580   4.978  10.481
 8052WAT     H238108   4.615   4.866  10.577
 8053WAT      O38109   3.621   2.320   2.899
 8053WAT     H138110   3.586   2.407   2.881
 8053WAT     H238111   3.707   2.335   2.937
 8054WAT      O38112   0.510   3.704   1.607
 8054WAT     H138113   0.550   3.631   1.560
 8054WAT     H238114   0.444   3.738   1.547
 8055WAT      O38115   4.257   1.020   8.455
 8055WAT     H138116   4.170   1.058   8.447
 8055WAT     H238117   4.291   1.019   8.365
 8056WAT      O38118   4.869   3.916   4.656
 8056WAT     H138119   4.800   3.962   4.705
 8056WAT     H238120   4.867   3.826   4.689
 8057WAT      O38121   5.820   2.825   2.588
 8057WAT     H138122   5.752   2.837   2.654
 8057WAT     H238123   5.779   2.770   2.521
 8058WAT      O38124   4.254   5.892   3.046
 8058WAT     H138125   4.191   5.873   3.116
 8058WAT     H238126   4.321   5.945   3.089
 8059WAT      O38127   0.934   3.484   8.924
 8059WAT     H138128   0.939   3.433   8.843
 8059WAT     H238129   1.001   3.446   8.981
 8060WAT      O38130   0.343   4.954  11.995
 8060WAT     H138131   0.351   4.941  11.900
 8060WAT     H238132   0.351   4.866  12.031
 8061WAT      O38133   0.157   0.534   2.769
 8061WAT     H138134   0.182   0.445   2.745
 8061WAT     H238135   0.144   0.579   2.685
 8062WAT      O38136   2.374   4.833  10.669
 8062WAT     H138137   2.352   4.787  10.588
 8062WAT     H238138   2.467   4.817  10.681
 8063WAT      O38139   2.530   2.628   2.163
 8063WAT     H138140   2.573   2.662   2.242
 8063WAT     H238141   2.496   2.706   2.119
 8064WAT      O38142   1.515   4.191  10.930
 8064WAT     H138143   1.428   4.225  10.952
 8064WAT     H238144   1.505   4.096  10.930
 8065WAT      O38145   0.205   4.840   0.711
 8065WAT     H138146   0.227   4.751   0.737
 8065WAT     H238147   0.117   4.855   0.747
 8066WAT      O38148   4.696   0.728   7.913
 8066WAT     H138149   4.775   0.750   7.864
 8066WAT     H238150   4.654   0.812   7.931
 8067WAT      O38151   5.817   1.534   3.174
 8067WAT     H138152   5.889   1.571   3.224
 8067WAT     H238153   5.809   1.444   3.205
 8068WAT      O38154   1.983   0.900  11.235
 8068WAT     H138155   1.913   0.963  11.219
 8068WAT     H238156   2.063   0.952  11.234
 8069WAT      O38157   5.673   5.830   8.615
 8069WAT     H138158   5.701   5.805   8.703
 8069WAT     H238159   5.578   5.842   8.622
 8070WAT      O38160   3.655   0.693   1.504
 8070WAT     H138161   3.743   0.675   1.472
 8070WAT     H238162   3.661   0.779   1.546
 8071WAT      O38163   5.326   5.009  12.062
 8071WAT     H138164   5.414   5.011  12.026
 8071WAT     H238165   5.287   5.093  12.036
 8072WAT      O38166   2.755   6.056   4.864
 8072WAT     H138167   2.780   5.972   4.903
 8072WAT     H238168   2.702   6.099   4.931
 8073WAT      O38169   6.091   4.319   1.047
 8073WAT     H138170   6.146   4.256   1.094
 8073WAT     H238171   6.059   4.271   0.971
 8074WAT      O38172   3.054   0.982   3.729
 8074WAT     H138173   3.099   0.965   3.812
 8074WAT     H238174   3.006   0.901   3.711
 8075WAT      O38175   1.684   2.170   9.704
 8075WAT     H138176   1.638   2.145   9.785
 8075WAT     H238177   1.615   2.205   9.648
 8076WAT      O38178   1.179   1.345   3.899
 8076WAT     H138179   1.187   1.329   3.805
 8076WAT     H238180   1.133   1.269   3.933
 8077WAT      O38181   5.148   6.118   4.042
 8077WAT     H138182   5.114   6.031   4.025
 8077WAT     H238183   5.074   6.177   4.027
 8078WAT      O38184   5.000   0.285   3.424
 8078WAT     H138185   4.914   0.272   3.383
 8078WAT     H238186   5.042   0.352   3.371
 8079WAT      O38187   5.284   5.795  11.083
 8079WAT     H138188   5.242   5.876  11.055
 8079WAT     H238189   5.315   5.755  11.001
 8080WAT      O38190   4.072   5.308   3.649
 8080WAT     H138191   4.113   5.394   3.659
 8080WAT     H238192   4.089   5.263   3.732
 8081WAT      O38193   4.097   2.038   2.104
 8081WAT     H138194   4.111   1.988   2.184
 8081WAT     H238195   4.068   1.973   2.040
 8082WAT      O38196   2.633   0.041   2.113
 8082WAT     H138197   2.594   0.014   2.196
 8082WAT     H238198   2.603  -0.026   2.051
 8083WAT      O38199   4.114   4.273   1.582
 8083WAT     H138200   4.135   4.359   1.619
 8083WAT     H238201   4.173   4.212   1.627
 8084WAT      O38202   0.716   5.853  10.359
 8084WAT     H138203   0.783   5.786  10.367
 8084WAT     H238204   0.641   5.808  10.320
 8085WAT      O38205   4.010   6.163   3.771
 8085WAT     H138206   4.093   6.118   3.784
 8085WAT     H238207   4.024   6.251   3.807
 8086WAT      O38208   6.091   2.279   8.646
 8086WAT     H138209   6.167   2.335   8.637
 8086WAT     H238210   6.081   2.237   8.561
 8087WAT      O38211   0.651   0.979   3.493
 8087WAT     H138212   0.719   0.967   3.427
 8087WAT     H238213   0.587   1.037   3.452
 8088WAT      O38214   0.191   4.566   4.101
 8088WAT     H138215   0.245   4.489   4.116
 8088WAT     H238216   0.102   4.536   4.115
 8089WAT      O38217   5.314   2.179   0.662
 8089WAT     H138218   5.242   2.116   0.662
 8089WAT     H238219   5.291   2.242   0.730
 8090WAT      O38220   5.303   3.428   1.743
 8090WAT     H138221   5.253   3.494   1.790
 8090WAT     H238222   5.386   3.471   1.720
 8091WAT      O38223   5.519   0.618   4.746
 8091WAT     H138224   5.531   0.530   4.712
 8091WAT     H238225   5.590   0.669   4.706
 8092WAT      O38226   3.348   4.282  12.452
 8092WAT     H138227   3.409   4.283  12.526
 8092WAT     H238228   3.271   4.328  12.484
 8093WAT      O38229   5.344   5.086   2.190
 8093WAT     H138230   5.328   5.077   2.284
 8093WAT     H238231   5.372   4.998   2.163
 8094WAT      O38232   1.690   1.977   9.500
 8094WAT     H138233   1.655   2.031   9.571
 8094WAT     H238234   1.761   1.927   9.541
 8095WAT      O38235   0.271   4.154   1.271
 8095WAT     H138236   0.251   4.245   1.249
 8095WAT     H238237   0.218   4.136   1.348
 8096WAT      O38238   0.193   1.646   1.121
 8096WAT     H138239   0.167   1.573   1.066
 8096WAT     H238240   0.151   1.722   1.082
 8097WAT      O38241   1.138   0.154   5.011
 8097WAT     H138242   1.163   0.069   4.975
 8097WAT     H238243   1.215   0.183   5.059
 8098WAT      O38244   1.470   5.098   0.043
 8098WAT     H138245   1.378   5.121   0.051
 8098WAT     H238246   1.517   5.180   0.061
 8099WAT      O38247   4.968   0.369  12.458
 8099WAT     H138248   4.973   0.329  12.371
 8099WAT     H238249   4.986   0.462  12.443
 8100WAT      O38250   5.312   2.231   0.096
 8100WAT     H138251   5.255   2.234   0.173
 8100WAT     H238252   5.308   2.139   0.068
 8101WAT      O38253   0.339   3.449  11.124
 8101WAT     H138254   0.276   3.512  11.160
 8101WAT     H238255   0.286   3.388  11.074
 8102WAT      O38256   0.430   1.456  11.704
 8102WAT     H138257   0.359   1.510  11.670
 8102WAT     H238258   0.389   1.399  11.769
 8103WAT      O38259   1.014   0.317   8.904
 8103WAT     H138260   1.027   0.406   8.870
 8103WAT     H238261   1.031   0.260   8.828
 8104WAT      O38262   3.369   4.221  11.692
 8104WAT     H138263   3.323   4.277  11.630
 8104WAT     H238264   3.458   4.257  11.697
 8105WAT      O38265   5.920   0.566  12.574
 8105WAT     H138266   5.995   0.617  12.605
 8105WAT     H238267   5.939   0.476  12.601
 8106WAT      O38268   0.316   2.721  11.120
 8106WAT     H138269   0.313   2.813  11.097
 8106WAT     H238270   0.289   2.718  11.212
 8107WAT      O38271   3.364   5.142  12.288
 8107WAT     H138272   3.356   5.086  12.366
 8107WAT     H238273   3.451   5.181  12.296
 8108WAT      O38274   5.102   2.481   0.254
 8108WAT     H138275   5.166   2.550   0.242
 8108WAT     H238276   5.072   2.460   0.166
 8109WAT      O38277   3.878   5.305   1.611
 8109WAT     H138278   3.860   5.361   1.536
 8109WAT     H238279   3.799   5.252   1.620
 8110WAT      O38280   0.855   2.179   0.466
 8110WAT     H138281   0.823   2.218   0.385
 8110WAT     H238282   0.944   2.152   0.446
 8111WAT      O38283   1.758   0.216   4.388
 8111WAT     H138284   1.669   0.202   4.420
 8111WAT     H238285   1.813   0.204   4.465
 8112WAT      O38286   0.879   3.300   2.905
 8112WAT     H138287   0.969   3.315   2.877
 8112WAT     H238288   0.826   3.312   2.826
 8113WAT      O38289   1.319   1.717   4.021
 8113WAT     H138290   1.317   1.667   3.939
 8113WAT     H238291   1.411   1.743   4.030
 8114WAT      O38292   5.385   5.622  10.425
 8114WAT     H138293   5.291   5.636  10.426
 8114WAT     H238294   5.422   5.710  10.440
 8115WAT      O38295   2.009   4.007   8.852
 8115WAT     H138296   2.024   4.069   8.924
 8115WAT     H238297   2.048   3.925   8.884
 8116WAT      O38298   3.427   1.819  12.341
 8116WAT     H138299   3.386   1.854  12.263
 8116WAT     H238300   3.449   1.896  12.394
 8117WAT      O38301   4.815   5.603  12.516
 8117WAT     H138302   4.735   5.588  12.465
 8117WAT     H238303   4.881   5.547  12.475
 8118WAT      O38304   5.169   0.444   9.294
 8118WAT     H138305   5.168   0.390   9.215
 8118WAT     H238306   5.255   0.428   9.334
 8119WAT      O38307   3.027   3.187   9.245
 8119WAT     H138308   3.042   3.257   9.308
 8119WAT     H238309   3.089   3.207   9.174
 8120WAT      O38310   5.536   4.314  10.722
 8120WAT     H138311   5.545   4.299  10.628
 8120WAT     H238312   5.535   4.409  10.732
 8121WAT      O38313   2.607   5.122   2.758
 8121WAT     H138314   2.518   5.119   2.792
 8121WAT     H238315   2.610   5.202   2.705
 8122WAT      O38316   4.957   0.422  10.963
 8122WAT     H138317   4.865   0.395  10.957
 8122WAT     H238318   5.001   0.370  10.895
 8123WAT      O38319   3.356   1.878   9.492
 8123WAT     H138320   3.336   1.958   9.540
 8123WAT     H238321   3.393   1.819   9.558
 8124WAT      O38322   4.472   5.083   9.937
 8124WAT     H138323   4.446   5.175   9.945
 8124WAT     H238324   4.476   5.068   9.843
 8125WAT      O38325   0.252   3.766   2.044
 8125WAT     H138326   0.205   3.714   2.109
 8125WAT     H238327   0.266   3.707   1.970
 8126WAT      O38328   1.653   1.728  10.029
 8126WAT     H138329   1.607   1.658   9.984
 8126WAT     H238330   1.727   1.749   9.972
 8127WAT      O38331   4.852   5.636   2.080
 8127WAT     H138332   4.913   5.698   2.041
 8127WAT     H238333   4.884   5.621   2.169
 8128WAT      O38334   0.667   0.058  12.009
 8128WAT     H138335   0.757   0.068  12.041
 8128WAT     H238336   0.616   0.121  12.061
 8129WAT      O38337   5.726   5.555   8.530
 8129WAT     H138338   5.730   5.579   8.437
 8129WAT     H238339   5.682   5.629   8.571
 8130WAT      O38340   5.004   0.429  11.678
 8130WAT     H138341   4.982   0.341  11.646
 8130WAT     H238342   4.991   0.425  11.772
 8131WAT      O38343   3.919   2.871   0.013
 8131WAT     H138344   3.922   2.798   0.074
 8131WAT     H238345   3.894   2.832  -0.071
 8132WAT      O38346   2.321   0.163   9.188
 8132WAT     H138347   2.391   0.132   9.245
 8132WAT     H238348   2.328   0.110   9.109
 8133WAT      O38349   0.431   1.010  10.648
 8133WAT     H138350   0.446   0.936  10.590
 8133WAT     H238351   0.382   0.974  10.721
 8134WAT      O38352   2.620   2.775   3.998
 8134WAT     H138353   2.659   2.692   4.026
 8134WAT     H238354   2.645   2.837   4.067
 8135WAT      O38355   6.008   3.444   8.922
 8135WAT     H138356   5.934   3.450   8.861
 8135WAT     H238357   6.079   3.406   8.869
 8136WAT      O38358   2.689   4.012   8.854
 8136WAT     H138359   2.696   3.932   8.802
 8136WAT     H238360   2.595   4.021   8.871
 8137WAT      O38361   3.236   4.006  12.481
 8137WAT     H138362   3.266   4.091  12.511
 8137WAT     H238363   3.244   4.009  12.386
 8138WAT      O38364   2.996   2.602   3.580
 8138WAT     H138365   3.020   2.514   3.551
 8138WAT     H238366   2.925   2.588   3.643
 8139WAT      O38367   5.802   2.988   0.183
 8139WAT     H138368   5.864   2.984   0.256
 8139WAT     H238369   5.735   3.051   0.212
 8140WAT      O38370   1.755   5.417   1.840
 8140WAT     H138371   1.743   5.404   1.934
 8140WAT     H238372   1.679   5.375   1.800
 8141WAT      O38373   0.172   0.634   3.730
 8141WAT     H138374   0.085   0.662   3.698
 8141WAT     H238375   0.177   0.542   3.707
 8142WAT      O38376   4.151   0.513   2.648
 8142WAT     H138377   4.234   0.486   2.608
 8142WAT     H238378   4.090   0.443   2.624
 8143WAT      O38379   4.985   1.217   2.940
 8143WAT     H138380   4.998   1.246   2.850
 8143WAT     H238381   4.895   1.185   2.943
 8144WAT      O38382   2.680   5.777   9.515
 8144WAT     H138383   2.590   5.744   9.517
 8144WAT     H238384   2.720   5.734   9.439
 8145WAT      O38385   5.996   5.634   2.678
 8145WAT     H138386   5.918   5.611   2.727
 8145WAT     H238387   5.964   5.662   2.592
 8146WAT      O38388   2.119   3.913  10.706
 8146WAT     H138389   2.188   3.905  10.771
 8146WAT     H238390   2.114   4.006  10.687
 8147WAT      O38391   0.481   5.667   0.971
 8147WAT     H138392   0.530   5.684   1.051
 8147WAT     H238393   0.523   5.724   0.905
 8148WAT      O38394   5.068   0.697   9.084
 8148WAT     H138395   5.029   0.694   9.172
 8148WAT     H238396   5.036   0.618   9.041
 8149WAT      O38397   4.452   5.401   2.455
 8149WAT     H138398   4.473   5.308   2.458
 8149WAT     H238399   4.537   5.445   2.463
 8150WAT      O38400   1.574   2.320   0.644
 8150WAT     H138401   1.595   2.379   0.571
 8150WAT     H238402   1.659   2.302   0.685
 8151WAT      O38403   5.551   3.588   8.474
 8151WAT     H138404   5.546   3.500   8.436
 8151WAT     H238405   5.508   3.581   8.558
 8152WAT      O38406   2.664   1.702  11.960
 8152WAT     H138407   2.574   1.671  11.947
 8152WAT     H238408   2.715   1.623  11.975
 8153WAT      O38409   0.728   5.120   7.768
 8153WAT     H138410   0.797   5.177   7.734
 8153WAT     H238411   0.759   5.094   7.855
 8154WAT      O38412   3.787   4.031   9.608
 8154WAT     H138413   3.741   3.970   9.665
 8154WAT     H238414   3.807   3.980   9.529
 8155WAT      O38415   2.658   0.718   3.681
 8155WAT     H138416   2.672   0.717   3.586
 8155WAT     H238417   2.567   0.692   3.692
 8156WAT      O38418   0.439   3.185  10.306
 8156WAT     H138419   0.401   3.270  10.280
 8156WAT     H238420   0.463   3.144  10.223
 8157WAT      O38421   0.268   1.717   2.157
 8157WAT     H138422   0.350   1.763   2.175
 8157WAT     H238423   0.254   1.662   2.233
 8158WAT      O38424   1.974   5.980   1.291
 8158WAT     H138425   1.940   6.037   1.222
 8158WAT     H238426   1.990   6.038   1.365
 8159WAT      O38427   2.483   0.057  10.025
 8159WAT     H138428   2.545   0.092  10.089
 8159WAT     H238429   2.504  -0.036  10.018
 8160WAT      O38430   5.855   2.945   9.596
 8160WAT     H138431   5.864   2.995   9.515
 8160WAT     H238432   5.872   3.009   9.665
 8161WAT      O38433   4.507   2.544  12.636
 8161WAT     H138434   4.538   2.595  12.711
 8161WAT     H238435   4.514   2.605  12.562
 8162WAT      O38436   5.105   1.180   3.719
 8162WAT     H138437   5.124   1.220   3.635
 8162WAT     H238438   5.190   1.148   3.750
 8163WAT      O38439   4.736   1.421  11.802
 8163WAT     H138440   4.735   1.469  11.885
 8163WAT     H238441   4.814   1.453  11.757
 8164WAT      O38442   1.157   5.921  10.444
 8164WAT     H138443   1.090   5.916  10.512
 8164WAT     H238444   1.198   5.835  10.444
 8165WAT      O38445   3.090   1.648   9.227
 8165WAT     H138446   3.071   1.585   9.157
 8165WAT     H238447   3.025   1.718   9.213
 8166WAT      O38448   5.480   0.710   4.066
 8166WAT     H138449   5.411   0.770   4.097
 8166WAT     H238450   5.447   0.623   4.087
 8167WAT      O38451   4.285   5.264   0.250
 8167WAT     H138452   4.341   5.240   0.176
 8167WAT     H238453   4.293   5.359   0.256
 8168WAT      O38454   1.472   3.823   2.201
 8168WAT     H138455   1.425   3.749   2.239
 8168WAT     H238456   1.405   3.872   2.154
 8169WAT      O38457   3.438   5.024   1.558
 8169WAT     H138458   3.468   5.024   1.467
 8169WAT     H238459   3.372   5.093   1.561
 8170WAT      O38460   5.853   4.713   1.213
 8170WAT     H138461   5.914   4.640   1.212
 8170WAT     H238462   5.893   4.779   1.156
 8171WAT      O38463   0.554   5.139   4.343
 8171WAT     H138464   0.580   5.215   4.395
 8171WAT     H238465   0.636   5.093   4.325
 8172WAT      O38466   1.768   4.603   1.222
 8172WAT     H138467   1.828   4.624   1.151
 8172WAT     H238468   1.681   4.625   1.187
 8173WAT      O38469   2.188   1.179   0.092
 8173WAT     H138470   2.168   1.268   0.122
 8173WAT     H238471   2.113   1.155   0.038
 8174WAT      O38472   3.610   5.259   1.986
 8174WAT     H138473   3.550   5.267   1.913
 8174WAT     H238474   3.686   5.313   1.961
 8175WAT      O38475   5.745   0.446   1.346
 8175WAT     H138476   5.688   0.483   1.414
 8175WAT     H238477   5.742   0.510   1.275
 8176WAT      O38478   1.351   3.518  11.788
 8176WAT     H138479   1.320   3.568  11.863
 8176WAT     H238480   1.444   3.502  11.807
 8177WAT      O38481   4.494   5.580  10.639
 8177WAT     H138482   4.559   5.515  10.665
 8177WAT     H238483   4.434   5.533  10.581
 8178WAT      O38484   3.687   2.802   1.653
 8178WAT     H138485   3.665   2.814   1.561
 8178WAT     H238486   3.779   2.828   1.660
 8179WAT      O38487   1.248   5.863   3.802
 8179WAT     H138488   1.299   5.877   3.723
 8179WAT     H238489   1.158   5.856   3.772
 8180WAT      O38490   3.918   3.211   0.107
 8180WAT     H138491   3.991   3.169   0.061
 8180WAT     H238492   3.887   3.144   0.169
 8181WAT      O38493   3.974   5.294   8.995
 8181WAT     H138494   3.960   5.380   9.035
 8181WAT     H238495   4.042   5.309   8.929
 8182WAT      O38496   5.794   1.046   1.167
 8182WAT     H138497   5.748   1.043   1.083
 8182WAT     H238498   5.791   1.138   1.193
 8183WAT      O38499   4.036   4.068   3.156
 8183WAT     H138500   4.083   3.998   3.201
 8183WAT     H238501   3.999   4.026   3.078
 8184WAT      O38502   5.398   5.653   1.056
 8184WAT     H138503   5.490   5.642   1.034
 8184WAT     H238504   5.398   5.714   1.130
 8185WAT      O38505   0.511   3.940  10.877
 8185WAT     H138506   0.432   3.968  10.924
 8185WAT     H238507   0.493   3.849  10.853
 8186WAT      O38508   0.691   2.554   3.342
 8186WAT     H138509   0.786   2.558   3.350
 8186WAT     H238510   0.661   2.522   3.427
 8187WAT      O38511   3.039   5.273   9.198
 8187WAT     H138512   3.117   5.314   9.235
 8187WAT     H238513   3.035   5.187   9.239
 8188WAT      O38514   0.890   2.616   9.921
 8188WAT     H138515   0.829   2.593   9.851
 8188WAT     H238516   0.974   2.582   9.892
 8189WAT      O38517   4.912   4.307  10.488
 8189WAT     H138518   4.854   4.236  10.513
 8189WAT     H238519   4.998   4.279  10.519
 8190WAT      O38520   2.265   5.897   3.996
 8190WAT     H138521   2.196   5.907   3.931
 8190WAT     H238522   2.220   5.866   4.074
 8191WAT      O38523   3.116   2.094   3.790
 8191WAT     H138524   3.079   2.011   3.760
 8191WAT     H238525   3.200   2.070   3.830
 8192WAT      O38526   1.143   1.135   2.135
 8192WAT     H138527   1.093   1.114   2.214
 8192WAT     H238528   1.077   1.160   2.070
 8193WAT      O38529   0.609   1.401   8.437
 8193WAT     H138530   0.652   1.352   8.367
 8193WAT     H238531   0.583   1.484   8.397
 8194WAT      O38532   0.297   4.975   9.702
 8194WAT     H138533   0.318   4.892   9.660
 8194WAT     H238534   0.372   5.031   9.685
 8195WAT      O38535   4.859   2.999   2.201
 8195WAT     H138536   4.834   2.993   2.108
 8195WAT     H238537   4.778   3.023   2.246
 8196WAT      O38538   3.777   1.824  10.621
 8196WAT     H138539   3.717   1.777  10.563
 8196WAT     H238540   3.736   1.821  10.707
 8197WAT      O38541   3.435   5.448   1.001
 8197WAT     H138542   3.361   5.401   1.040
 8197WAT     H238543   3.444   5.527   1.055
 8198WAT      O38544   0.673   2.036  11.297
 8198WAT     H138545   0.734   1.969  11.267
 8198WAT     H238546   0.721   2.085  11.364
 8199WAT      O38547   4.683   1.254   1.662
 8199WAT     H138548   4.718   1.231   1.576
 8199WAT     H238549   4.701   1.177   1.716
 8200WAT      O38550   2.495   1.788   9.480
 8200WAT     H138551   2.540   1.704   9.488
 8200WAT     H238552   2.452   1.800   9.565
 8201WAT      O38553   0.095   5.653   4.337
 8201WAT     H138554   0.051   5.715   4.396
 8201WAT     H238555   0.109   5.575   4.390
 8202WAT      O38556   1.045   1.480   3.223
 8202WAT     H138557   1.013   1.566   3.196
 8202WAT     H238558   1.137   1.479   3.196
 8203WAT      O38559   4.383   1.476   8.207
 8203WAT     H138560   4.310   1.470   8.145
 8203WAT     H238561   4.443   1.407   8.181
 8204WAT      O38562   2.831   0.930   1.980
 8204WAT     H138563   2.896   0.873   1.939
 8204WAT     H238564   2.883   0.989   2.036
 8205WAT      O38565   6.006   4.999   8.505
 8205WAT     H138566   6.008   4.913   8.461
 8205WAT     H238567   6.016   4.978   8.598
 8206WAT      O38568   2.125   1.818  10.489
 8206WAT     H138569   2.151   1.792  10.578
 8206WAT     H238570   2.201   1.799  10.435
 8207WAT      O38571   1.795   1.513   9.351
 8207WAT     H138572   1.730   1.451   9.317
 8207WAT     H238573   1.868   1.508   9.289
 8208WAT      O38574   4.944   4.920  10.785
 8208WAT     H138575   4.917   4.853  10.722
 8208WAT     H238576   5.039   4.912  10.789
 8209WAT      O38577   3.336   4.793   8.991
 8209WAT     H138578   3.314   4.832   8.907
 8209WAT     H238579   3.359   4.702   8.970
 8210WAT      O38580   2.781   2.841  11.427
 8210WAT     H138581   2.804   2.901  11.357
 8210WAT     H238582   2.693   2.868  11.454
 8211WAT      O38583   0.158   0.067   9.477
 8211WAT     H138584   0.087   0.125   9.449
 8211WAT     H238585   0.234   0.096   9.425
 8212WAT      O38586   2.159   2.851  10.731
 8212WAT     H138587   2.221   2.809  10.790
 8212WAT     H238588   2.098   2.781  10.707
 8213WAT      O38589   2.296   5.319   9.758
 8213WAT     H138590   2.250   5.392   9.799
 8213WAT     H238591   2.227   5.272   9.711
 8214WAT      O38592   1.948   2.439   8.400
 8214WAT     H138593   2.037   2.403   8.409
 8214WAT     H238594   1.913   2.438   8.489
 8215WAT      O38595   2.358   2.577   3.483
 8215WAT     H138596   2.337   2.567   3.576
 8215WAT     H238597   2.411   2.501   3.462
 8216WAT      O38598   5.071   6.145  11.481
 8216WAT     H138599   5.103   6.109  11.399
 8216WAT     H238600   5.113   6.231  11.488
 8217WAT      O38601   2.604   1.295  11.242
 8217WAT     H138602   2.625   1.283  11.149
 8217WAT     H238603   2.576   1.387  11.248
 8218WAT      O38604   2.829   4.672   3.766
 8218WAT     H138605   2.763   4.612   3.732
 8218WAT     H238606   2.867   4.714   3.689
 8219WAT      O38607   5.171   2.970   3.759
 8219WAT     H138608   5.110   2.932   3.696
 8219WAT     H238609   5.176   3.062   3.736
 8220WAT      O38610   4.270   1.211  11.343
 8220WAT     H138611   4.265   1.118  11.365
 8220WAT     H238612   4.229   1.218  11.257
 8221WAT      O38613   2.393   1.110   9.015
 8221WAT     H138614   2.396   1.142   8.925
 8221WAT     H238615   2.363   1.019   9.007
 8222WAT      O38616   1.972   3.473   0.397
 8222WAT     H138617   2.015   3.505   0.318
 8222WAT     H238618   2.042   3.429   0.446
 8223WAT      O38619   2.197   6.231   0.852
 8223WAT     H138620   2.235   6.153   0.812
 8223WAT     H238621   2.104   6.210   0.861
 8224WAT      O38622   0.706   2.024  10.443
 8224WAT     H138623   0.783   2.057  10.398
 8224WAT     H238624   0.720   2.047  10.535
 8225WAT      O38625   4.305   1.329   3.803
 8225WAT     H138626   4.321   1.275   3.880
 8225WAT     H238627   4.319   1.271   3.729
 8226WAT      O38628   4.306   2.440  12.313
 8226WAT     H138629   4.360   2.362  12.305
 8226WAT     H238630   4.271   2.455  12.225
 8227WAT      O38631   1.807   4.300   2.509
 8227WAT     H138632   1.803   4.273   2.418
 8227WAT     H238633   1.900   4.311   2.528
 8228WAT      O38634   5.434   4.544   8.831
 8228WAT     H138635   5.429   4.591   8.748
 8228WAT     H238636   5.519   4.500   8.829
 8229WAT      O38637   0.476   1.575   1.971
 8229WAT     H138638   0.500   1.577   1.878
 8229WAT     H238639   0.521   1.652   2.008
 8230WAT      O38640   3.463   0.489   9.843
 8230WAT     H138641   3.412   0.430   9.899
 8230WAT     H238642   3.513   0.543   9.904
 8231WAT      O38643   0.208   2.738   2.994
 8231WAT     H138644   0.236   2.720   3.084
 8231WAT     H238645   0.240   2.826   2.976
 8232WAT      O38646   4.727   5.328   3.283
 8232WAT     H138647   4.651   5.279   3.312
 8232WAT     H238648   4.722   5.326   3.187
 8233WAT      O38649   0.128   5.927   8.364
 8233WAT     H138650   0.180   5.868   8.308
 8233WAT     H238651   0.191   5.992   8.395
 8234WAT      O38652   5.926   4.283   2.394
 8234WAT     H138653   5.947   4.190   2.386
 8234WAT     H238654   5.942   4.319   2.307
 8235WAT      O38655   0.119   5.242  11.893
 8235WAT     H138656   0.063   5.166  11.876
 8235WAT     H238657   0.064   5.301  11.945
 8236WAT      O38658   0.447   4.205   4.331
 8236WAT     H138659   0.390   4.224   4.257
 8236WAT     H238660   0.535   4.228   4.301
 8237WAT      O38661   1.148   1.485   0.760
 8237WAT     H138662   1.209   1.465   0.831
 8237WAT     H238663   1.094   1.556   0.794
 8238WAT      O38664   0.597   0.759   4.229
 8238WAT     H138665   0.621   0.811   4.152
 8238WAT     H238666   0.669   0.773   4.291
 8239WAT      O38667   3.125   1.893   3.410
 8239WAT     H138668   3.082   1.872   3.327
 8239WAT     H238669   3.192   1.825   3.420
 8240WAT      O38670   0.832   5.704  11.448
 8240WAT     H138671   0.738   5.702  11.430
 8240WAT     H238672   0.854   5.797  11.451
 8241WAT      O38673   0.942   1.468   8.201
 8241WAT     H138674   1.029   1.475   8.161
 8241WAT     H238675   0.881   1.484   8.129
 8242WAT      O38676   5.333   6.107   1.795
 8242WAT     H138677   5.409   6.152   1.758
 8242WAT     H238678   5.361   6.016   1.804
 8243WAT      O38679   5.482   4.701   1.499
 8243WAT     H138680   5.408   4.655   1.458
 8243WAT     H238681   5.496   4.655   1.582
 8244WAT      O38682   1.351   3.218   1.885
 8244WAT     H138683   1.411   3.231   1.959
 8244WAT     H238684   1.264   3.237   1.922
 8245WAT      O38685   3.099   6.219   1.964
 8245WAT     H138686   3.164   6.151   1.947
 8245WAT     H238687   3.015   6.178   1.943
 8246WAT      O38688   2.921   0.182   9.127
 8246WAT     H138689   2.879   0.267   9.113
 8246WAT     H238690   2.856   0.119   9.095
 8247WAT      O38691   1.448   4.888   3.559
 8247WAT     H138692   1.416   4.827   3.493
 8247WAT     H238693   1.471   4.967   3.510
 8248WAT      O38694   1.164   4.619   9.333
 8248WAT     H138695   1.169   4.615   9.238
 8248WAT     H238696   1.089   4.564   9.355
 8249WAT      O38697   5.229   0.676  11.194
 8249WAT     H138698   5.171   0.628  11.254
 8249WAT     H238699   5.216   0.768  11.217
 8250WAT      O38700   5.270   4.162   2.664
 8250WAT     H138701   5.197   4.112   2.701
 8250WAT     H238702   5.272   4.137   2.572
 8251WAT      O38703   0.436   0.098   0.666
 8251WAT     H138704   0.392   0.124   0.747
 8251WAT     H238705   0.488   0.021   0.691
 8252WAT      O38706   2.512   3.369   2.825
 8252WAT     H138707   2.602   3.401   2.823
 8252WAT     H238708   2.512   3.292   2.769
 8253WAT      O38709   0.407   3.176   8.259
 8253WAT     H138710   0.317   3.203   8.240
 8253WAT     H238711   0.461   3.245   8.221
 8254WAT      O38712   5.868   4.927   0.214
 8254WAT     H138713   5.935   4.923   0.282
 8254WAT     H238714   5.789   4.893   0.255
 8255WAT      O38715   3.074   4.999   4.762
 8255WAT     H138716   3.111   4.942   4.829
 8255WAT     H238717   2.981   5.002   4.781
 8256WAT      O38718   4.938   5.077   9.412
 8256WAT     H138719   4.938   4.999   9.357
 8256WAT     H238720   4.847   5.107   9.411
 8257WAT      O38721   4.044   4.438  10.808
 8257WAT     H138722   4.008   4.355  10.774
 8257WAT     H238723   4.094   4.412  10.886
 8258WAT      O38724   2.655   4.555   2.000
 8258WAT     H138725   2.672   4.556   1.906
 8258WAT     H238726   2.563   4.578   2.008
 8259WAT      O38727   3.225   4.073   3.907
 8259WAT     H138728   3.251   3.996   3.957
 8259WAT     H238729   3.199   4.137   3.973
 8260WAT      O38730   3.268   5.626   3.464
 8260WAT     H138731   3.186   5.579   3.453
 8260WAT     H238732   3.271   5.687   3.390
 8261WAT      O38733   1.203   1.383   9.773
 8261WAT     H138734   1.175   1.465   9.813
 8261WAT     H238735   1.147   1.373   9.696
 8262WAT      O38736   3.537   6.237   2.389
 8262WAT     H138737   3.592   6.165   2.358
 8262WAT     H238738   3.520   6.215   2.481
 8263WAT      O38739   1.873   0.901   9.163
 8263WAT     H138740   1.855   0.860   9.078
 8263WAT     H238741   1.968   0.891   9.174
 8264WAT      O38742   3.247   2.203   0.191
 8264WAT     H138743   3.253   2.124   0.245
 8264WAT     H238744   3.253   2.171   0.101
 8265WAT      O38745   1.631   1.219   7.829
 8265WAT     H138746   1.715   1.224   7.876
 8265WAT     H238747   1.651   1.252   7.741
 8266WAT      O38748   4.568   3.967   3.420
 8266WAT     H138749   4.578   3.949   3.327
 8266WAT     H238750   4.499   4.033   3.424
 8267WAT      O38751   4.484   0.677  12.305
 8267WAT     H138752   4.458   0.716  12.222
 8267WAT     H238753   4.526   0.749  12.353
 8268WAT      O38754   1.927   3.385   2.539
 8268WAT     H138755   1.879   3.403   2.619
 8268WAT     H238756   2.004   3.335   2.568
 8269WAT      O38757   1.899   0.881  10.324
 8269WAT     H138758   1.994   0.871  10.328
 8269WAT     H238759   1.880   0.901  10.233
 8270WAT      O38760   1.345   1.553   0.104
 8270WAT     H138761   1.284   1.549   0.031
 8270WAT     H238762   1.322   1.633   0.151
 8271WAT      O38763   5.354   0.962   3.385
 8271WAT     H138764   5.356   1.030   3.318
 8271WAT     H238765   5.388   1.003   3.464
 8272WAT      O38766   0.303   5.800  12.438
 8272WAT     H138767   0.336   5.712  12.456
 8272WAT     H238768   0.339   5.821  12.351
 8273WAT      O38769   3.062   2.867   0.183
 8273WAT     H138770   3.031   2.954   0.208
 8273WAT     H238771   3.012   2.845   0.104
 8274WAT      O38772   5.640   5.469  11.167
 8274WAT     H138773   5.585   5.543  11.194
 8274WAT     H238774   5.633   5.406  11.238
 8275WAT      O38775   4.364   3.274   9.602
 8275WAT     H138776   4.357   3.262   9.508
 8275WAT     H238777   4.444   3.325   9.614
 8276WAT      O38778   6.175   5.321   4.128
 8276WAT     H138779   6.105   5.306   4.065
 8276WAT     H238780   6.129   5.340   4.210
 8277WAT      O38781   0.922   2.017  12.582
 8277WAT     H138782   0.934   2.098  12.531
 8277WAT     H238783   0.999   1.964  12.561
 8278WAT      O38784   4.989   2.741  12.191
 8278WAT     H138785   5.048   2.684  12.240
 8278WAT     H238786   4.905   2.732  12.236
 8279WAT      O38787   1.425   3.285   3.843
 8279WAT     H138788   1.402   3.260   3.932
 8279WAT     H238789   1.409   3.380   3.840
 8280WAT      O38790   5.439   1.502  11.137
 8280WAT     H138791   5.517   1.478  11.186
 8280WAT     H238792   5.469   1.515  11.047
 8281WAT      O38793   1.973   2.980   4.345
 8281WAT     H138794   1.931   2.906   4.387
 8281WAT     H238795   1.937   2.981   4.256
 8282WAT      O38796   3.882   3.593   7.700
 8282WAT     H138797   3.806   3.556   7.745
 8282WAT     H238798   3.904   3.528   7.633
 8283WAT      O38799   3.237   5.299  12.123
 8283WAT     H138800   3.288   5.239  12.178
 8283WAT     H238801   3.152   5.257  12.115
 8284WAT      O38802   0.683   5.814  10.002
 8284WAT     H138803   0.735   5.888  10.033
 8284WAT     H238804   0.723   5.737  10.043
 8285WAT      O38805   1.231   0.688  12.445
 8285WAT     H138806   1.224   0.594  12.464
 8285WAT     H238807   1.310   0.716  12.491
 8286WAT      O38808   0.480   1.842   1.346
 8286WAT     H138809   0.495   1.925   1.392
 8286WAT     H238810   0.503   1.861   1.255
 8287WAT      O38811   5.547   3.705  10.827
 8287WAT     H138812   5.577   3.741  10.910
 8287WAT     H238813   5.518   3.781  10.777
 8288WAT      O38814   0.561   5.761   2.248
 8288WAT     H138815   0.597   5.781   2.162
 8288WAT     H238816   0.472   5.730   2.230
 8289WAT      O38817   4.411   1.246   4.057
 8289WAT     H138818   4.472   1.173   4.055
 8289WAT     H238819   4.360   1.233   4.137
 8290WAT      O38820   2.274   2.282   1.969
 8290WAT     H138821   2.347   2.285   1.908
 8290WAT     H238822   2.309   2.316   2.051
 8291WAT      O38823   3.294   0.871   9.899
 8291WAT     H138824   3.304   0.810   9.827
 8291WAT     H238825   3.375   0.923   9.898
 8292WAT      O38826   2.764   5.701  10.487
 8292WAT     H138827   2.793   5.649  10.412
 8292WAT     H238828   2.708   5.768  10.449
 8293WAT      O38829   3.582   1.073   8.851
 8293WAT     H138830   3.555   1.162   8.828
 8293WAT     H238831   3.665   1.084   8.898
 8294WAT      O38832   2.411   1.013  12.064
 8294WAT     H138833   2.406   1.015  11.968
 8294WAT     H238834   2.490   1.063  12.084
 8295WAT      O38835   4.351   2.489   1.773
 8295WAT     H138836   4.320   2.431   1.703
 8295WAT     H238837   4.431   2.527   1.737
 8296WAT      O38838   3.921   1.289   9.970
 8296WAT     H138839   3.959   1.371  10.001
 8296WAT     H238840   3.857   1.315   9.904
 8297WAT      O38841   0.435   1.025  11.137
 8297WAT     H138842   0.440   1.104  11.083
 8297WAT     H238843   0.362   0.976  11.100
 8298WAT      O38844   1.968   1.688   1.572
 8298WAT     H138845   1.961   1.778   1.541
 8298WAT     H238846   1.914   1.685   1.651
 8299WAT      O38847   3.098   1.825   0.936
 8299WAT     H138848   3.158   1.750   0.937
 8299WAT     H238849   3.141   1.890   0.881
 8300WAT      O38850   3.421   0.384   2.936
 8300WAT     H138851   3.485   0.433   2.885
 8300WAT     H238852   3.366   0.341   2.871
 8301WAT      O38853   3.451   3.594   1.585
 8301WAT     H138854   3.360   3.618   1.565
 8301WAT     H238855   3.448   3.565   1.677
 8302WAT      O38856   2.377   5.334   8.864
 8302WAT     H138857   2.445   5.321   8.798
 8302WAT     H238858   2.400   5.417   8.906
 8303WAT      O38859   5.083   2.805  11.123
 8303WAT     H138860   5.045   2.889  11.150
 8303WAT     H238861   5.030   2.739  11.169
 8304WAT      O38862   3.827   3.302   4.137
 8304WAT     H138863   3.878   3.226   4.164
 8304WAT     H238864   3.802   3.283   4.047
 8305WAT      O38865   0.295   6.127   8.585
 8305WAT     H138866   0.205   6.105   8.562
 8305WAT     H238867   0.288   6.169   8.671
 8306WAT      O38868   5.397   2.636  11.480
 8306WAT     H138869   5.401   2.671  11.569
 8306WAT     H238870   5.323   2.681  11.440
 8307WAT      O38871   1.383   2.204  10.727
 8307WAT     H138872   1.369   2.170  10.815
 8307WAT     H238873   1.299   2.243  10.702
 8308WAT      O38874   5.415   0.852   9.088
 8308WAT     H138875   5.447   0.802   9.014
 8308WAT     H238876   5.320   0.846   9.084
 8309WAT      O38877   4.021   3.205   2.212
 8309WAT     H138878   4.013   3.206   2.117
 8309WAT     H238879   3.977   3.285   2.241
 8310WAT      O38880   5.156   5.333   2.676
 8310WAT     H138881   5.216   5.406   2.688
 8310WAT     H238882   5.154   5.319   2.581
 8311WAT      O38883   0.806   2.419   9.266
 8311WAT     H138884   0.748   2.469   9.323
 8311WAT     H238885   0.794   2.458   9.180
 8312WAT      O38886   2.037   3.514   9.061
 8312WAT     H138887   2.040   3.531   9.155
 8312WAT     H238888   1.946   3.493   9.043
 8313WAT      O38889   0.912   2.664   3.697
 8313WAT     H138890   0.864   2.622   3.769
 8313WAT     H238891   0.990   2.701   3.738
 8314WAT      O38892   1.407   3.101   9.208
 8314WAT     H138893   1.401   3.155   9.288
 8314WAT     H238894   1.426   3.164   9.139
 8315WAT      O38895   4.286   1.217  12.399
 8315WAT     H138896   4.360   1.278  12.390
 8315WAT     H238897   4.319   1.134  12.365
 8316WAT      O38898   4.748   4.586   4.125
 8316WAT     H138899   4.693   4.530   4.069
 8316WAT     H238900   4.686   4.647   4.164
 8317WAT      O38901   1.830   0.897   0.934
 8317WAT     H138902   1.833   0.882   0.839
 8317WAT     H238903   1.793   0.817   0.970
 8318WAT      O38904   1.563   2.753  11.361
 8318WAT     H138905   1.474   2.731  11.385
 8318WAT     H238906   1.611   2.755  11.444
 8319WAT      O38907   1.926   4.891  11.153
 8319WAT     H138908   1.867   4.955  11.194
 8319WAT     H238909   1.867   4.822  11.122
 8320WAT      O38910   2.344   1.076   0.299
 8320WAT     H138911   2.275   1.102   0.239
 8320WAT     H238912   2.350   1.147   0.362
 8321WAT      O38913   0.475   5.067  10.781
 8321WAT     H138914   0.501   5.143  10.833
 8321WAT     H238915   0.500   4.991  10.834
 8322WAT      O38916   4.801   5.975   2.290
 8322WAT     H138917   4.822   6.011   2.377
 8322WAT     H238918   4.880   5.993   2.238
 8323WAT      O38919   3.672   5.644   9.278
 8323WAT     H138920   3.702   5.584   9.210
 8323WAT     H238921   3.723   5.620   9.356
 8324WAT      O38922   4.765   1.705   2.988
 8324WAT     H138923   4.848   1.711   2.942
 8324WAT     H238924   4.724   1.791   2.974
 8325WAT      O38925   2.763   4.306   8.372
 8325WAT     H138926   2.719   4.340   8.295
 8325WAT     H238927   2.692   4.278   8.430
 8326WAT      O38928   3.749   5.542   1.065
 8326WAT     H138929   3.710   5.629   1.063
 8326WAT     H238930   3.825   5.548   1.007
 8327WAT      O38931   1.343   4.466   0.430
 8327WAT     H138932   1.332   4.376   0.462
 8327WAT     H238933   1.254   4.494   0.407
 8328WAT      O38934   2.836   6.096  11.734
 8328WAT     H138935   2.859   6.096  11.827
 8328WAT     H238936   2.885   6.170  11.698
 8329WAT      O38937   6.064   1.229  12.271
 8329WAT     H138938   6.121   1.222  12.195
 8329WAT     H238939   6.049   1.323  12.281
 8330WAT      O38940   3.941   3.274   9.978
 8330WAT     H138941   3.992   3.194   9.984
 8330WAT     H238942   3.892   3.278  10.060
 8331WAT      O38943   2.301   2.828   9.909
 8331WAT     H138944   2.273   2.880   9.984
 8331WAT     H238945   2.226   2.831   9.849
 8332WAT      O38946   4.297   3.027   4.114
 8332WAT     H138947   4.329   3.117   4.115
 8332WAT     H238948   4.366   2.976   4.155
 8333WAT      O38949   2.279   1.026   7.695
 8333WAT     H138950   2.369   1.055   7.709
 8333WAT     H238951   2.226   1.085   7.748
 8334WAT      O38952   4.498   2.352   8.185
 8334WAT     H138953   4.468   2.265   8.157
 8334WAT     H238954   4.573   2.371   8.128
 8335WAT      O38955   3.317   3.296   8.627
 8335WAT     H138956   3.266   3.220   8.654
 8335WAT     H238957   3.336   3.281   8.534
 8336WAT      O38958   4.065   0.783   3.715
 8336WAT     H138959   3.989   0.838   3.696
 8336WAT     H238960   4.029   0.695   3.726
 8337WAT      O38961   0.902   1.619   2.038
 8337WAT     H138962   0.828   1.678   2.056
 8337WAT     H238963   0.943   1.604   2.123
 8338WAT      O38964   4.689   1.979   4.554
 8338WAT     H138965   4.759   1.916   4.571
 8338WAT     H238966   4.609   1.929   4.565
 8339WAT      O38967   4.998   0.493   1.358
 8339WAT     H138968   4.996   0.508   1.263
 8339WAT     H238969   4.997   0.581   1.396
 8340WAT      O38970   2.147   3.227   9.001
 8340WAT     H138971   2.131   3.236   8.907
 8340WAT     H238972   2.148   3.317   9.033
 8341WAT      O38973   2.088   3.395  10.758
 8341WAT     H138974   2.089   3.304  10.729
 8341WAT     H238975   2.180   3.422  10.753
 8342WAT      O38976   5.576   4.466   9.833
 8342WAT     H138977   5.509   4.424   9.780
 8342WAT     H238978   5.649   4.479   9.774
 8343WAT      O38979   4.492   3.131   8.206
 8343WAT     H138980   4.441   3.117   8.127
 8343WAT     H238981   4.455   3.210   8.245
 8344WAT      O38982   4.552   3.407   2.475
 8344WAT     H138983   4.482   3.441   2.532
 8344WAT     H238984   4.616   3.478   2.471
 8345WAT      O38985   3.961   5.442  11.382
 8345WAT     H138986   3.886   5.419  11.436
 8345WAT     H238987   3.933   5.521  11.335
 8346WAT      O38988   4.335   5.796   8.931
 8346WAT     H138989   4.370   5.861   8.992
 8346WAT     H238990   4.391   5.803   8.854
 8347WAT      O38991   3.612   3.205   0.920
 8347WAT     H138992   3.581   3.196   0.830
 8347WAT     H238993   3.641   3.296   0.926
 8348WAT      O38994   6.115   2.368   0.549
 8348WAT     H138995   6.058   2.295   0.573
 8348WAT     H238996   6.060   2.425   0.495
 8349WAT      O38997   5.133   3.546   1.202
 8349WAT     H138998   5.048   3.533   1.243
 8349WAT     H238999   5.196   3.517   1.268
 8350WAT      O39000   4.713   1.975  10.770
 8350WAT     H139001   4.791   2.002  10.818
 8350WAT     H239002   4.655   2.051  10.771
 8351WAT      O39003   1.024   4.020   9.005
 8351WAT     H139004   1.009   3.930   8.977
 8351WAT     H239005   1.090   4.054   8.944
 8352WAT      O39006   1.636   5.465  10.777
 8352WAT     H139007   1.643   5.419  10.861
 8352WAT     H239008   1.561   5.425  10.733
 8353WAT      O39009   1.486   6.112   1.522
 8353WAT     H139010   1.418   6.098   1.589
 8353WAT     H239011   1.440   6.101   1.439
 8354WAT      O39012   5.768   2.283  11.450
 8354WAT     H139013   5.696   2.255  11.394
 8354WAT     H239014   5.842   2.230  11.422
 8355WAT      O39015   4.378   0.965   2.486
 8355WAT     H139016   4.419   1.035   2.538
 8355WAT     H239017   4.302   1.007   2.446
 8356WAT      O39018   0.854   2.266  10.526
 8356WAT     H139019   0.813   2.228  10.604
 8356WAT     H239020   0.946   2.276  10.550
 8357WAT      O39021   5.503   1.002   2.376
 8357WAT     H139022   5.566   1.049   2.322
 8357WAT     H239023   5.529   1.022   2.466
 8358WAT      O39024   3.159   3.133  11.916
 8358WAT     H139025   3.183   3.223  11.935
 8358WAT     H239026   3.190   3.083  11.992
 8359WAT      O39027   5.937   0.750   2.612
 8359WAT     H139028   6.018   0.730   2.563
 8359WAT     H239029   5.952   0.714   2.699
 8360WAT      O39030   1.175   2.010   3.490
 8360WAT     H139031   1.138   2.010   3.578
 8360WAT     H239032   1.120   2.072   3.442
 8361WAT      O39033   0.479   1.892  10.598
 8361WAT     H139034   0.466   1.965  10.537
 8361WAT     H239035   0.564   1.909  10.638
 8362WAT      O39036   5.253   3.996  10.908
 8362WAT     H139037   5.237   3.918  10.854
 8362WAT     H239038   5.326   4.040  10.864
 8363WAT      O39039   1.096   1.723  11.208
 8363WAT     H139040   1.041   1.724  11.130
 8363WAT     H239041   1.068   1.800  11.258
 8364WAT      O39042   5.984   4.340   3.858
 8364WAT     H139043   6.010   4.368   3.946
 8364WAT     H239044   5.931   4.262   3.872
 8365WAT      O39045   0.055   4.377   2.325
 8365WAT     H139046   0.131   4.433   2.310
 8365WAT     H239047  -0.011   4.409   2.264
 8366WAT      O39048   0.605   3.839   9.529
 8366WAT     H139049   0.604   3.856   9.623
 8366WAT     H239050   0.659   3.761   9.520
 8367WAT      O39051   2.734   6.159  10.121
 8367WAT     H139052   2.820   6.169  10.080
 8367WAT     H239053   2.712   6.246  10.153
 8368WAT      O39054   1.140   4.731   8.414
 8368WAT     H139055   1.111   4.640   8.414
 8368WAT     H239056   1.211   4.735   8.350
 8369WAT      O39057   4.117   0.468   0.800
 8369WAT     H139058   4.058   0.494   0.729
 8369WAT     H239059   4.135   0.549   0.847
 8370WAT      O39060   3.114   0.639   2.884
 8370WAT     H139061   3.191   0.689   2.912
 8370WAT     H239062   3.043   0.703   2.881
 8371WAT      O39063   3.704   2.591  10.489
 8371WAT     H139064   3.710   2.673  10.440
 8371WAT     H239065   3.636   2.606  10.554
 8372WAT      O39066   1.610   5.908  11.709
 8372WAT     H139067   1.687   5.854  11.695
 8372WAT     H239068   1.583   5.934  11.621
 8373WAT      O39069   5.135   0.267   1.942
 8373WAT     H139070   5.176   0.232   1.863
 8373WAT     H239071   5.085   0.342   1.912
 8374WAT      O39072   5.827   4.901   9.012
 8374WAT     H139073   5.870   4.921   9.095
 8374WAT     H239074   5.740   4.869   9.037
 8375WAT      O39075   2.703   1.510  11.519
 8375WAT     H139076   2.749   1.478  11.597
 8375WAT     H239077   2.614   1.477  11.527
 8376WAT      O39078   1.075   6.081   2.001
 8376WAT     H139079   1.133   6.054   2.072
 8376WAT     H239080   1.114   6.163   1.968
 8377WAT      O39081   4.600   2.530   1.002
 8377WAT     H139082   4.535   2.600   1.008
 8377WAT     H239083   4.626   2.529   0.910
 8378WAT      O39084   2.392   4.893  10.925
 8378WAT     H139085   2.348   4.833  10.864
 8378WAT     H239086   2.330   4.902  10.997
 8379WAT      O39087   5.920   1.488   1.843
 8379WAT     H139088   5.864   1.563   1.823
 8379WAT     H239089   5.908   1.429   1.768
 8380WAT      O39090   0.436   2.451   2.232
 8380WAT     H139091   0.407   2.487   2.148
 8380WAT     H239092   0.416   2.357   2.226
 8381WAT      O39093   0.238   2.346   1.312
 8381WAT     H139094   0.181   2.401   1.366
 8381WAT     H239095   0.237   2.261   1.355
 8382WAT      O39096   3.628   4.254   1.557
 8382WAT     H139097   3.644   4.349   1.558
 8382WAT     H239098   3.711   4.216   1.530
 8383WAT      O39099   4.478   2.638  12.397
 8383WAT     H139100   4.419   2.564  12.385
 8383WAT     H239101   4.436   2.710  12.350
 8384WAT      O39102   2.855   5.310   0.641
 8384WAT     H139103   2.886   5.400   0.630
 8384WAT     H239104   2.931   5.255   0.622
 8385WAT      O39105   5.448   5.088   9.070
 8385WAT     H139106   5.404   5.095   9.155
 8385WAT     H239107   5.510   5.015   9.081
 8386WAT      O39108   1.944   3.365   1.904
 8386WAT     H139109   1.944   3.346   1.998
 8386WAT     H239110   1.875   3.309   1.869
 8387WAT      O39111   2.963   1.207   4.136
 8387WAT     H139112   2.914   1.166   4.207
 8387WAT     H239113   2.899   1.262   4.091
 8388WAT      O39114   2.835   0.797  11.739
 8388WAT     H139115   2.808   0.883  11.771
 8388WAT     H239116   2.829   0.804  11.644
 8389WAT      O39117   0.998   5.178  11.948
 8389WAT     H139118   0.955   5.249  11.996
 8389WAT     H239119   0.946   5.168  11.868
 8390WAT      O39120   5.494   1.728  11.313
 8390WAT     H139121   5.467   1.684  11.393
 8390WAT     H239122   5.470   1.667  11.243
 8391WAT      O39123   5.664   1.154   9.719
 8391WAT     H139124   5.618   1.129   9.799
 8391WAT     H239125   5.611   1.117   9.648
 8392WAT      O39126   0.638   0.333   3.125
 8392WAT     H139127   0.686   0.294   3.198
 8392WAT     H239128   0.663   0.426   3.127
 8393WAT      O39129   2.385   3.828   2.151
 8393WAT     H139130   2.478   3.825   2.133
 8393WAT     H239131   2.343   3.816   2.066
 8394WAT      O39132   2.083   4.302  11.131
 8394WAT     H139133   2.099   4.359  11.056
 8394WAT     H239134   2.133   4.223  11.112
 8395WAT      O39135   5.294   4.631   3.250
 8395WAT     H139136   5.204   4.632   3.216
 8395WAT     H239137   5.335   4.556   3.207
 8396WAT      O39138   2.930   1.001   0.730
 8396WAT     H139139   2.898   1.086   0.699
 8396WAT     H239140   2.853   0.959   0.767
 8397WAT      O39141   3.202   1.733  10.093
 8397WAT     H139142   3.146   1.799  10.134
 8397WAT     H239143   3.283   1.781  10.072
 8398WAT      O39144   0.487   1.677   0.058
 8398WAT     H139145   0.580   1.659   0.044
 8398WAT     H239146   0.467   1.641   0.144
 8399WAT      O39147   2.903   4.013   3.590
 8399WAT     H139148   2.975   4.069   3.619
 8399WAT     H239149   2.930   3.983   3.504
 8400WAT      O39150   1.353   0.711   7.714
 8400WAT     H139151   1.368   0.803   7.736
 8400WAT     H239152   1.431   0.666   7.747
 8401WAT      O39153   5.627   2.289  12.064
 8401WAT     H139154   5.684   2.343  12.010
 8401WAT     H239155   5.569   2.245  12.002
 8402WAT      O39156   5.451   5.107   7.642
 8402WAT     H139157   5.531   5.094   7.591
 8402WAT     H239158   5.481   5.105   7.733
 8403WAT      O39159   2.064   1.040   0.412
 8403WAT     H139160   2.058   0.958   0.362
 8403WAT     H239161   2.041   1.108   0.349
 8404WAT      O39162   1.525   0.321  11.283
 8404WAT     H139163   1.605   0.328  11.231
 8404WAT     H239164   1.489   0.409  11.284
 8405WAT      O39165   3.628   3.378   1.221
 8405WAT     H139166   3.672   3.293   1.221
 8405WAT     H239167   3.636   3.409   1.131
 8406WAT      O39168   5.994   0.387   2.737
 8406WAT     H139169   5.922   0.387   2.674
 8406WAT     H239170   5.988   0.302   2.780
 8407WAT      O39171   4.789   0.932   1.609
 8407WAT     H139172   4.850   1.004   1.627
 8407WAT     H239173   4.814   0.863   1.672
 8408WAT      O39174   0.324   2.095   4.205
 8408WAT     H139175   0.415   2.071   4.225
 8408WAT     H239176   0.279   2.011   4.197
 8409WAT      O39177   3.208   4.088   0.380
 8409WAT     H139178   3.292   4.045   0.365
 8409WAT     H239179   3.201   4.094   0.476
 8410WAT      O39180   0.667   0.304   1.454
 8410WAT     H139181   0.617   0.379   1.488
 8410WAT     H239182   0.664   0.240   1.524
 8411WAT      O39183   3.523   1.654  11.627
 8411WAT     H139184   3.589   1.720  11.647
 8411WAT     H239185   3.440   1.692  11.656
 8412WAT      O39186   5.148   0.185  11.396
 8412WAT     H139187   5.240   0.200  11.376
 8412WAT     H239188   5.103   0.201  11.312
 8413WAT      O39189   2.177   1.233   7.931
 8413WAT     H139190   2.129   1.183   7.997
 8413WAT     H239191   2.154   1.324   7.948
 8414WAT      O39192   5.256   6.238   1.489
 8414WAT     H139193   5.340   6.197   1.469
 8414WAT     H239194   5.198   6.209   1.419
 8415WAT      O39195   5.706   1.088  -0.021
 8415WAT     H139196   5.663   1.045   0.053
 8415WAT     H239197   5.798   1.097   0.006
 8416WAT      O39198   3.848   0.394   9.281
 8416WAT     H139199   3.881   0.479   9.310
 8416WAT     H239200   3.922   0.354   9.235
 8417WAT      O39201   3.459   4.682  10.754
 8417WAT     H139202   3.428   4.705  10.841
 8417WAT     H239203   3.389   4.628  10.717
 8418WAT      O39204   5.853   5.384  10.981
 8418WAT     H139205   5.804   5.429  11.050
 8418WAT     H239206   5.801   5.395  10.902
 8419WAT      O39207   1.194   6.071   8.074
 8419WAT     H139208   1.245   5.994   8.051
 8419WAT     H239209   1.158   6.102   7.991
 8420WAT      O39210   5.722   4.347   0.306
 8420WAT     H139211   5.758   4.333   0.219
 8420WAT     H239212   5.792   4.391   0.354
 8421WAT      O39213   0.535   1.756   8.727
 8421WAT     H139214   0.608   1.791   8.675
 8421WAT     H239215   0.533   1.663   8.704
 8422WAT      O39216   4.732   3.646   9.874
 8422WAT     H139217   4.802   3.679   9.818
 8422WAT     H239218   4.776   3.618   9.954
 8423WAT      O39219   0.733   4.653   2.713
 8423WAT     H139220   0.673   4.585   2.744
 8423WAT     H239221   0.814   4.635   2.760
 8424WAT      O39222   0.771   0.888   4.411
 8424WAT     H139223   0.865   0.903   4.398
 8424WAT     H239224   0.763   0.863   4.503
 8425WAT      O39225   1.344   3.242   1.267
 8425WAT     H139226   1.353   3.336   1.284
 8425WAT     H239227   1.335   3.236   1.172
 8426WAT      O39228   2.661   3.151  11.707
 8426WAT     H139229   2.566   3.151  11.719
 8426WAT     H239230   2.686   3.059  11.716
 8427WAT      O39231   2.994   2.627   4.635
 8427WAT     H139232   2.901   2.605   4.637
 8427WAT     H239233   3.000   2.713   4.676
 8428WAT      O39234   0.370   1.938   1.858
 8428WAT     H139235   0.389   1.918   1.767
 8428WAT     H239236   0.278   1.913   1.870
 8429WAT      O39237   5.052   3.399   7.928
 8429WAT     H139238   5.112   3.324   7.937
 8429WAT     H239239   5.006   3.383   7.846
 8430WAT      O39240   0.844   1.585   2.535
 8430WAT     H139241   0.774   1.648   2.519
 8430WAT     H239242   0.820   1.541   2.616
 8431WAT      O39243   4.781   0.612  11.350
 8431WAT     H139244   4.816   0.669  11.417
 8431WAT     H239245   4.852   0.600  11.287
 8432WAT      O39246   4.833   4.906   2.892
 8432WAT     H139247   4.895   4.919   2.820
 8432WAT     H239248   4.871   4.955   2.965
 8433WAT      O39249   4.491   5.191   3.814
 8433WAT     H139250   4.508   5.175   3.907
 8433WAT     H239251   4.550   5.131   3.768
 8434WAT      O39252   5.858   2.113   2.070
 8434WAT     H139253   5.825   2.114   2.160
 8434WAT     H239254   5.922   2.184   2.067
 8435WAT      O39255   2.018   6.122   9.406
 8435WAT     H139256   2.113   6.133   9.412
 8435WAT     H239257   2.007   6.031   9.376
 8436WAT      O39258   5.698   2.579  10.911
 8436WAT     H139259   5.627   2.636  10.941
 8436WAT     H239260   5.669   2.491  10.936
 8437WAT      O39261   3.412   3.876   0.655
 8437WAT     H139262   3.438   3.845   0.742
 8437WAT     H239263   3.493   3.876   0.604
 8438WAT      O39264   6.063   5.811   1.923
 8438WAT     H139265   6.087   5.882   1.863
 8438WAT     H239266   6.100   5.837   2.007
 8439WAT      O39267   5.252   2.787   8.733
 8439WAT     H139268   5.300   2.829   8.662
 8439WAT     H239269   5.162   2.815   8.722
 8440WAT      O39270   0.335   1.189   7.925
 8440WAT     H139271   0.277   1.261   7.950
 8440WAT     H239272   0.319   1.178   7.831
 8441WAT      O39273   2.271   3.756   3.337
 8441WAT     H139274   2.319   3.726   3.414
 8441WAT     H239275   2.305   3.844   3.320
 8442WAT      O39276   4.050   6.112   9.553
 8442WAT     H139277   4.145   6.100   9.549
 8442WAT     H239278   4.038   6.207   9.559
 8443WAT      O39279   0.002   4.329   0.592
 8443WAT     H139280   0.003   4.368   0.679
 8443WAT     H239281   0.029   4.238   0.606
 8444WAT      O39282   2.089   0.980   1.552
 8444WAT     H139283   2.011   0.935   1.521
 8444WAT     H239284   2.129   0.919   1.615
 8445WAT      O39285   4.552   0.585   8.116
 8445WAT     H139286   4.464   0.556   8.093
 8445WAT     H239287   4.584   0.630   8.037
 8446WAT      O39288   1.224   0.012   9.466
 8446WAT     H139289   1.242  -0.054   9.534
 8446WAT     H239290   1.241   0.096   9.509
 8447WAT      O39291   4.048   0.201   9.198
 8447WAT     H139292   4.107   0.225   9.127
 8447WAT     H239293   4.102   0.148   9.257
 8448WAT      O39294   1.501   1.698   4.738
 8448WAT     H139295   1.594   1.692   4.716
 8448WAT     H239296   1.460   1.630   4.684
 8449WAT      O39297   0.824   1.180  10.844
 8449WAT     H139298   0.908   1.205  10.805
 8449WAT     H239299   0.846   1.107  10.902
 8450WAT      O39300   3.646   3.795   3.356
 8450WAT     H139301   3.591   3.868   3.329
 8450WAT     H239302   3.719   3.796   3.294
 8451WAT      O39303   5.202   5.131   0.309
 8451WAT     H139304   5.242   5.189   0.374
 8451WAT     H239305   5.122   5.177   0.282
 8452WAT      O39306   0.265   4.034   3.374
 8452WAT     H139307   0.345   3.984   3.356
 8452WAT     H239308   0.211   4.021   3.296
 8453WAT      O39309   0.915   5.736  11.867
 8453WAT     H139310   0.939   5.756  11.957
 8453WAT     H239311   0.855   5.807  11.841
 8454WAT      O39312   4.736   1.894   1.230
 8454WAT     H139313   4.651   1.921   1.197
 8454WAT     H239314   4.771   1.971   1.275
 8455WAT      O39315   5.434   3.012   1.040
 8455WAT     H139316   5.434   3.096   0.994
 8455WAT     H239317   5.407   3.034   1.130
 8456WAT      O39318   0.628   2.211  10.065
 8456WAT     H139319   0.658   2.120  10.063
 8456WAT     H239320   0.705   2.263  10.043
 8457WAT      O39321   2.026   0.558   8.562
 8457WAT     H139322   1.973   0.481   8.544
 8457WAT     H239323   2.116   0.526   8.560
 8458WAT      O39324   1.943   4.143   2.875
 8458WAT     H139325   1.980   4.226   2.845
 8458WAT     H239326   1.853   4.144   2.842
 8459WAT      O39327   2.579   4.971   1.710
 8459WAT     H139328   2.495   4.985   1.668
 8459WAT     H239329   2.589   5.045   1.770
 8460WAT      O39330   5.468   4.506  10.289
 8460WAT     H139331   5.527   4.503  10.213
 8460WAT     H239332   5.395   4.562  10.260
 8461WAT      O39333   2.706   3.587  10.031
 8461WAT     H139334   2.656   3.588  10.112
 8461WAT     H239335   2.641   3.572   9.963
 8462WAT      O39336   0.552   5.704   9.036
 8462WAT     H139337   0.603   5.779   9.005
 8462WAT     H239338   0.513   5.734   9.118
 8463WAT      O39339   0.107   4.456   8.520
 8463WAT     H139340   0.021   4.485   8.551
 8463WAT     H239341   0.167   4.484   8.589
 8464WAT      O39342   6.256   4.734   9.260
 8464WAT     H139343   6.195   4.805   9.282
 8464WAT     H239344   6.201   4.671   9.213
 8465WAT      O39345   1.635   5.362   4.953
 8465WAT     H139346   1.566   5.370   5.019
 8465WAT     H239347   1.615   5.280   4.908
 8466WAT      O39348   3.386   3.047   4.628
 8466WAT     H139349   3.468   3.009   4.597
 8466WAT     H239350   3.410   3.095   4.707
 8467WAT      O39351   4.403   2.620   8.900
 8467WAT     H139352   4.314   2.622   8.934
 8467WAT     H239353   4.450   2.687   8.951
 8468WAT      O39354   4.891   5.487   9.403
 8468WAT     H139355   4.834   5.561   9.378
 8468WAT     H239356   4.980   5.518   9.385
 8469WAT      O39357   3.340   3.132  11.453
 8469WAT     H139358   3.306   3.168  11.534
 8469WAT     H239359   3.293   3.050  11.441
 8470WAT      O39360   1.957   2.321  11.866
 8470WAT     H139361   1.906   2.339  11.787
 8470WAT     H239362   1.952   2.402  11.917
 8471WAT      O39363   3.100   2.990   0.921
 8471WAT     H139364   3.018   3.038   0.934
 8471WAT     H239365   3.166   3.042   0.965
 8472WAT      O39366   2.799   0.533   0.448
 8472WAT     H139367   2.821   0.578   0.366
 8472WAT     H239368   2.710   0.501   0.434
 8473WAT      O39369   4.426   4.251   4.425
 8473WAT     H139370   4.473   4.332   4.444
 8473WAT     H239371   4.392   4.222   4.510
 8474WAT      O39372   4.906   2.996   0.487
 8474WAT     H139373   5.001   2.998   0.488
 8474WAT     H239374   4.883   2.912   0.525
 8475WAT      O39375   1.634   0.440   9.150
 8475WAT     H139376   1.661   0.350   9.168
 8475WAT     H239377   1.601   0.473   9.234
 8476WAT      O39378   1.167   1.114   9.861
 8476WAT     H139379   1.095   1.101   9.922
 8476WAT     H239380   1.178   1.209   9.857
 8477WAT      O39381   5.519   5.561   8.307
 8477WAT     H139382   5.541   5.587   8.217
 8477WAT     H239383   5.495   5.643   8.349
 8478WAT      O39384   4.457   2.782   1.014
 8478WAT     H139385   4.426   2.770   1.104
 8478WAT     H239386   4.414   2.862   0.984
 8479WAT      O39387   4.448   5.019   3.237
 8479WAT     H139388   4.445   4.955   3.167
 8479WAT     H239389   4.385   5.087   3.211
 8480WAT      O39390   5.172   4.156   2.167
 8480WAT     H139391   5.103   4.095   2.141
 8480WAT     H239392   5.165   4.228   2.105
 8481WAT      O39393   2.983   2.939   8.949
 8481WAT     H139394   2.997   2.978   9.035
 8481WAT     H239395   3.019   2.851   8.956
 8482WAT      O39396   0.454   4.113   8.926
 8482WAT     H139397   0.505   4.096   8.846
 8482WAT     H239398   0.363   4.109   8.897
 8483WAT      O39399   3.653   0.324   3.788
 8483WAT     H139400   3.596   0.281   3.852
 8483WAT     H239401   3.737   0.331   3.832
 8484WAT      O39402   0.244   5.518   9.362
 8484WAT     H139403   0.316   5.555   9.414
 8484WAT     H239404   0.177   5.496   9.426
 8485WAT      O39405   4.035   5.397   3.298
 8485WAT     H139406   4.003   5.411   3.209
 8485WAT     H239407   4.008   5.308   3.320
 8486WAT      O39408   4.510   0.676   0.243
 8486WAT     H139409   4.534   0.752   0.190
 8486WAT     H239410   4.414   0.672   0.236
 8487WAT      O39411   3.243   0.072   0.350
 8487WAT     H139412   3.178   0.142   0.352
 8487WAT     H239413   3.192  -0.008   0.346
 8488WAT      O39414   5.681   3.465   9.151
 8488WAT     H139415   5.656   3.456   9.243
 8488WAT     H239416   5.777   3.469   9.153
 8489WAT      O39417   1.753   0.936   4.946
 8489WAT     H139418   1.711   0.936   4.861
 8489WAT     H239419   1.737   0.848   4.981
 8490WAT      O39420   3.008   2.519   8.023
 8490WAT     H139421   3.037   2.446   7.967
 8490WAT     H239422   3.089   2.557   8.057
 8491WAT      O39423   3.718   1.479   9.306
 8491WAT     H139424   3.719   1.568   9.340
 8491WAT     H239425   3.638   1.440   9.342
 8492WAT      O39426   5.827   4.199   9.773
 8492WAT     H139427   5.766   4.194   9.699
 8492WAT     H239428   5.850   4.292   9.778
 8493WAT      O39429   6.094   3.357   8.441
 8493WAT     H139430   6.144   3.310   8.374
 8493WAT     H239431   6.016   3.388   8.395
 8494WAT      O39432   6.043   3.224   9.293
 8494WAT     H139433   5.977   3.209   9.361
 8494WAT     H239434   6.124   3.190   9.331
 8495WAT      O39435   2.810   4.258   4.319
 8495WAT     H139436   2.765   4.199   4.379
 8495WAT     H239437   2.898   4.221   4.311
 8496WAT      O39438   6.162   4.678  10.695
 8496WAT     H139439   6.124   4.680  10.607
 8496WAT     H239440   6.210   4.596  10.699
 8497WAT      O39441   1.025   2.968   0.450
 8497WAT     H139442   0.970   2.900   0.488
 8497WAT     H239443   0.965   3.021   0.397
 8498WAT      O39444   1.852   4.552   9.343
 8498WAT     H139445   1.807   4.481   9.390
 8498WAT     H239446   1.943   4.525   9.341
 8499WAT      O39447   5.454   2.238   0.433
 8499WAT     H139448   5.423   2.212   0.520
 8499WAT     H239449   5.374   2.255   0.384
 8500WAT      O39450   5.668   0.370  11.411
 8500WAT     H139451   5.696   0.299  11.354
 8500WAT     H239452   5.613   0.425  11.355
 8501WAT      O39453   0.236   3.251   0.512
 8501WAT     H139454   0.260   3.251   0.605
 8501WAT     H239455   0.272   3.168   0.479
 8502WAT      O39456   5.334   0.862  11.923
 8502WAT     H139457   5.360   0.844  12.013
 8502WAT     H239458   5.262   0.924  11.930
 8503WAT      O39459   2.672   0.086   8.996
 8503WAT     H139460   2.674   0.177   9.026
 8503WAT     H239461   2.584   0.074   8.962
 8504WAT      O39462   1.477   2.663  11.090
 8504WAT     H139463   1.422   2.738  11.114
 8504WAT     H239464   1.557   2.674  11.140
 8505WAT      O39465   3.212   4.937   4.011
 8505WAT     H139466   3.156   4.929   4.088
 8505WAT     H239467   3.251   5.024   4.019
 8506WAT      O39468   2.862   3.842   1.352
 8506WAT     H139469   2.950   3.870   1.381
 8506WAT     H239470   2.813   3.924   1.345
 8507WAT      O39471   2.294   3.760   9.249
 8507WAT     H139472   2.314   3.837   9.196
 8507WAT     H239473   2.363   3.697   9.228
 8508WAT      O39474   4.723   0.591   3.528
 8508WAT     H139475   4.810   0.580   3.567
 8508WAT     H239476   4.721   0.683   3.500
 8509WAT      O39477   2.523   2.636   1.692
 8509WAT     H139478   2.519   2.540   1.693
 8509WAT     H239479   2.432   2.664   1.702
 8510WAT      O39480   0.864   4.203   3.445
 8510WAT     H139481   0.873   4.279   3.503
 8510WAT     H239482   0.888   4.128   3.500
 8511WAT      O39483   5.873   5.943   1.133
 8511WAT     H139484   5.851   5.855   1.164
 8511WAT     H239485   5.969   5.945   1.135
 8512WAT      O39486   3.096   3.847   0.692
 8512WAT     H139487   3.119   3.840   0.785
 8512WAT     H239488   3.152   3.916   0.658
 8513WAT      O39489   2.156   0.989   3.623
 8513WAT     H139490   2.223   1.032   3.570
 8513WAT     H239491   2.090   0.961   3.559
 8514WAT      O39492   2.282   5.759   1.107
 8514WAT     H139493   2.254   5.731   1.020
 8514WAT     H239494   2.235   5.701   1.168
 8515WAT      O39495   5.574   0.071   1.163
 8515WAT     H139496   5.650   0.119   1.130
 8515WAT     H239497   5.506   0.085   1.097
 8516WAT      O39498   2.181   5.540   0.320
 8516WAT     H139499   2.184   5.471   0.385
 8516WAT     H239500   2.255   5.597   0.341
 8517WAT      O39501   5.196   1.999  12.652
 8517WAT     H139502   5.128   2.066  12.658
 8517WAT     H239503   5.149   1.916  12.666
 8518WAT      O39504   5.615   2.727   8.782
 8518WAT     H139505   5.599   2.749   8.874
 8518WAT     H239506   5.581   2.639   8.772
 8519WAT      O39507   0.018   2.459  10.179
 8519WAT     H139508   0.009   2.555  10.175
 8519WAT     H239509   0.111   2.444  10.195
 8520WAT      O39510   4.329   4.918   0.757
 8520WAT     H139511   4.386   4.892   0.830
 8520WAT     H239512   4.349   5.010   0.742
 8521WAT      O39513   2.973   6.171  12.639
 8521WAT     H139514   2.994   6.140  12.727
 8521WAT     H239515   2.953   6.092  12.589
 8522WAT      O39516   2.661   3.697   8.191
 8522WAT     H139517   2.579   3.675   8.148
 8522WAT     H239518   2.714   3.617   8.185
 8523WAT      O39519   2.154   3.764   9.512
 8523WAT     H139520   2.158   3.673   9.540
 8523WAT     H239521   2.197   3.765   9.426
 8524WAT      O39522   4.019   1.869   1.583
 8524WAT     H139523   4.047   1.827   1.502
 8524WAT     H239524   3.999   1.959   1.557
 8525WAT      O39525   0.419   4.053   9.817
 8525WAT     H139526   0.373   4.098   9.887
 8525WAT     H239527   0.401   4.106   9.739
 8526WAT      O39528   1.879   5.759   3.822
 8526WAT     H139529   1.894   5.696   3.752
 8526WAT     H239530   1.960   5.759   3.872
 8527WAT      O39531   2.322   5.844  10.710
 8527WAT     H139532   2.324   5.909  10.781
 8527WAT     H239533   2.230   5.815  10.707
 8528WAT      O39534   5.500   5.436  12.478
 8528WAT     H139535   5.459   5.461  12.395
 8528WAT     H239536   5.545   5.354  12.459
 8529WAT      O39537   4.377   1.838   9.485
 8529WAT     H139538   4.441   1.897   9.444
 8529WAT     H239539   4.404   1.751   9.457
 8530WAT      O39540   3.630   3.804  12.642
 8530WAT     H139541   3.690   3.763  12.580
 8530WAT     H239542   3.590   3.731  12.689
 8531WAT      O39543   3.072   1.734  11.248
 8531WAT     H139544   3.124   1.726  11.328
 8531WAT     H239545   2.996   1.678  11.263
 8532WAT      O39546   1.399   1.904   8.775
 8532WAT     H139547   1.453   1.895   8.853
 8532WAT     H239548   1.407   1.819   8.731
 8533WAT      O39549   4.782   3.429   3.294
 8533WAT     H139550   4.806   3.469   3.378
 8533WAT     H239551   4.855   3.451   3.235
 8534WAT      O39552   0.800   3.826   2.524
 8534WAT     H139553   0.847   3.841   2.605
 8534WAT     H239554   0.736   3.897   2.520
 8535WAT      O39555   0.119   2.336   9.588
 8535WAT     H139556   0.088   2.251   9.619
 8535WAT     H239557   0.079   2.346   9.502
 8536WAT      O39558   3.687   0.670   3.237
 8536WAT     H139559   3.594   0.649   3.226
 8536WAT     H239560   3.718   0.690   3.149
 8537WAT      O39561   2.559   2.137  11.104
 8537WAT     H139562   2.569   2.045  11.082
 8537WAT     H239563   2.527   2.178  11.023
 8538WAT      O39564   2.439   3.409  12.022
 8538WAT     H139565   2.500   3.422  11.950
 8538WAT     H239566   2.453   3.484  12.080
 8539WAT      O39567   0.651   3.444   1.066
 8539WAT     H139568   0.599   3.524   1.054
 8539WAT     H239569   0.728   3.474   1.114
 8540WAT      O39570   5.534   6.183   3.390
 8540WAT     H139571   5.556   6.271   3.359
 8540WAT     H239572   5.517   6.194   3.484
 8541WAT      O39573   0.682   1.036   8.591
 8541WAT     H139574   0.692   1.014   8.498
 8541WAT     H239575   0.599   1.084   8.595
 8542WAT      O39576   2.945   4.551   2.418
 8542WAT     H139577   2.955   4.645   2.402
 8542WAT     H239578   3.004   4.534   2.492
 8543WAT      O39579   5.013   3.139   9.491
 8543WAT     H139580   4.939   3.196   9.513
 8543WAT     H239581   5.090   3.185   9.524
 8544WAT      O39582   3.468   5.551  10.086
 8544WAT     H139583   3.561   5.528  10.089
 8544WAT     H239584   3.433   5.498  10.014
 8545WAT      O39585   1.295   3.391  11.038
 8545WAT     H139586   1.325   3.367  11.127
 8545WAT     H239587   1.240   3.467  11.051
 8546WAT      O39588   1.897   4.467   3.145
 8546WAT     H139589   1.909   4.465   3.050
 8546WAT     H239590   1.969   4.522   3.176
 8547WAT      O39591   3.631   1.220   9.113
 8547WAT     H139592   3.666   1.292   9.061
 8547WAT     H239593   3.687   1.145   9.092
 8548WAT      O39594   1.170   2.693   2.007
 8548WAT     H139595   1.253   2.733   1.983
 8548WAT     H239596   1.179   2.601   1.980
 8549WAT      O39597   6.048   0.235   9.156
 8549WAT     H139598   6.125   0.290   9.171
 8549WAT     H239599   6.080   0.146   9.167
 8550WAT      O39600   4.914   5.836  12.578
 8550WAT     H139601   4.856   5.904  12.545
 8550WAT     H239602   4.887   5.756  12.533
 8551WAT      O39603   5.854   1.881   8.853
 8551WAT     H139604   5.938   1.925   8.862
 8551WAT     H239605   5.874   1.798   8.810
 8552WAT      O39606   0.400   6.095  10.185
 8552WAT     H139607   0.379   6.033  10.255
 8552WAT     H239608   0.371   6.051  10.104
 8553WAT      O39609   0.599   1.850   7.483
 8553WAT     H139610   0.668   1.795   7.445
 8553WAT     H239611   0.614   1.846   7.578
 8554WAT      O39612   4.924   1.499   1.380
 8554WAT     H139613   5.006   1.468   1.419
 8554WAT     H239614   4.858   1.478   1.445
 8555WAT      O39615   2.630   6.015   0.741
 8555WAT     H139616   2.712   6.016   0.792
 8555WAT     H239617   2.577   5.947   0.782
 8556WAT      O39618   2.807   5.447  12.322
 8556WAT     H139619   2.796   5.389  12.398
 8556WAT     H239620   2.731   5.506  12.326
 8557WAT      O39621   4.349   6.179  10.787
 8557WAT     H139622   4.388   6.156  10.872
 8557WAT     H239623   4.263   6.139  10.788
 8558WAT      O39624   0.106   4.514   2.885
 8558WAT     H139625   0.183   4.487   2.934
 8558WAT     H239626   0.067   4.433   2.853
 8559WAT      O39627   2.333   6.033  10.205
 8559WAT     H139628   2.423   6.053  10.230
 8559WAT     H239629   2.334   5.941  10.181
 8560WAT      O39630   2.049   1.255   8.606
 8560WAT     H139631   2.018   1.169   8.578
 8560WAT     H239632   2.055   1.306   8.525
 8561WAT      O39633   4.832   1.779  11.498
 8561WAT     H139634   4.910   1.780  11.553
 8561WAT     H239635   4.835   1.694  11.454
 8562WAT      O39636   2.402   5.093   8.554
 8562WAT     H139637   2.450   5.171   8.585
 8562WAT     H239638   2.356   5.123   8.476
 8563WAT      O39639   1.906   1.905  10.357
 8563WAT     H139640   1.868   1.820  10.338
 8563WAT     H239641   1.990   1.886  10.397
 8564WAT      O39642   4.458   2.794   2.588
 8564WAT     H139643   4.546   2.759   2.578
 8564WAT     H239644   4.422   2.793   2.499
 8565WAT      O39645   2.892   6.133   4.326
 8565WAT     H139646   2.830   6.205   4.339
 8565WAT     H239647   2.944   6.132   4.407
 8566WAT      O39648   1.729   3.697   9.948
 8566WAT     H139649   1.715   3.791   9.948
 8566WAT     H239650   1.773   3.678   9.865
 8567WAT      O39651   1.028   5.713   9.920
 8567WAT     H139652   1.012   5.630   9.965
 8567WAT     H239653   1.069   5.769   9.986
 8568WAT      O39654   3.794   2.020  12.038
 8568WAT     H139655   3.779   1.926  12.025
 8568WAT     H239656   3.709   2.060  12.020
 8569WAT      O39657   4.168   1.412  10.214
 8569WAT     H139658   4.150   1.318  10.221
 8569WAT     H239659   4.098   1.453  10.265
 8570WAT      O39660   3.180   4.271   1.537
 8570WAT     H139661   3.223   4.328   1.601
 8570WAT     H239662   3.202   4.182   1.565
 8571WAT      O39663   4.394   3.177  12.255
 8571WAT     H139664   4.384   3.092  12.297
 8571WAT     H239665   4.434   3.232  12.323
 8572WAT      O39666   0.082   4.184   9.070
 8572WAT     H139667   0.089   4.203   8.977
 8572WAT     H239668   0.038   4.099   9.074
 8573WAT      O39669   3.671   2.747  11.561
 8573WAT     H139670   3.639   2.793  11.483
 8573WAT     H239671   3.594   2.701  11.595
 8574WAT      O39672   5.557   1.170   1.305
 8574WAT     H139673   5.535   1.105   1.372
 8574WAT     H239674   5.491   1.159   1.238
 8575WAT      O39675   0.071   1.491  12.429
 8575WAT     H139676   0.031   1.576  12.411
 8575WAT     H239677   0.141   1.510  12.492
 8576WAT      O39678   0.559   6.109   0.440
 8576WAT     H139679   0.595   6.114   0.352
 8576WAT     H239680   0.470   6.077   0.428
 8577WAT      O39681   2.279   2.125  12.639
 8577WAT     H139682   2.303   2.161  12.724
 8577WAT     H239683   2.258   2.201  12.585
 8578WAT      O39684   1.815   4.232   3.981
 8578WAT     H139685   1.729   4.265   4.005
 8578WAT     H239686   1.875   4.304   4.003
 8579WAT      O39687   5.213   3.241   9.660
 8579WAT     H139688   5.257   3.324   9.678
 8579WAT     H239689   5.275   3.174   9.688
 8580WAT      O39690   5.492   3.610   2.303
 8580WAT     H139691   5.476   3.565   2.220
 8580WAT     H239692   5.506   3.701   2.279
 8581WAT      O39693   1.625   3.014   0.290
 8581WAT     H139694   1.592   3.049   0.373
 8581WAT     H239695   1.617   3.087   0.229
 8582WAT      O39696   0.072   1.603  11.689
 8582WAT     H139697   0.129   1.677  11.671
 8582WAT     H239698   0.094   1.538  11.621
 8583WAT      O39699   3.190   1.562  10.806
 8583WAT     H139700   3.226   1.521  10.727
 8583WAT     H239701   3.266   1.574  10.863
 8584WAT      O39702   5.758   0.332   2.621
 8584WAT     H139703   5.685   0.345   2.560
 8584WAT     H239704   5.721   0.280   2.692
 8585WAT      O39705   2.366   5.892   7.443
 8585WAT     H139706   2.329   5.961   7.389
 8585WAT     H239707   2.356   5.812   7.391
 8586WAT      O39708   0.847   4.901   1.048
 8586WAT     H139709   0.866   4.823   1.100
 8586WAT     H239710   0.754   4.919   1.064
 8587WAT      O39711   5.050   4.191   3.271
 8587WAT     H139712   5.132   4.240   3.277
 8587WAT     H239713   5.042   4.170   3.178
 8588WAT      O39714   6.023   4.501   0.030
 8588WAT     H139715   6.068   4.585   0.038
 8588WAT     H239716   6.042   4.456   0.113
 8589WAT      O39717   4.845   2.182   9.155
 8589WAT     H139718   4.750   2.187   9.149
 8589WAT     H239719   4.875   2.175   9.064
 8590WAT      O39720   2.057   2.923   1.689
 8590WAT     H139721   2.125   2.860   1.667
 8590WAT     H239722   2.057   2.985   1.616
 8591WAT      O39723   5.058   6.114  12.705
 8591WAT     H139724   5.046   6.140  12.614
 8591WAT     H239725   5.112   6.035  12.700
 8592WAT      O39726   5.862   0.745   3.724
 8592WAT     H139727   5.777   0.748   3.767
 8592WAT     H239728   5.880   0.835   3.699
 8593WAT      O39729   2.707   6.151   1.635
 8593WAT     H139730   2.780   6.090   1.649
 8593WAT     H239731   2.736   6.206   1.562
 8594WAT      O39732   4.998   3.931   0.305
 8594WAT     H139733   5.027   3.932   0.214
 8594WAT     H239734   5.047   3.860   0.345
 8595WAT      O39735   3.276   2.349   9.421
 8595WAT     H139736   3.251   2.328   9.511
 8595WAT     H239737   3.221   2.292   9.367
 8596WAT      O39738   1.607   5.795   1.410
 8596WAT     H139739   1.563   5.723   1.365
 8596WAT     H239740   1.569   5.795   1.498
 8597WAT      O39741   1.502   1.663   8.663
 8597WAT     H139742   1.524   1.656   8.571
 8597WAT     H239743   1.587   1.674   8.707
 8598WAT      O39744   4.944   3.905   1.629
 8598WAT     H139745   4.899   3.934   1.549
 8598WAT     H239746   4.932   3.810   1.630
 8599WAT      O39747   5.329   5.134   2.743
 8599WAT     H139748   5.323   5.083   2.662
 8599WAT     H239749   5.248   5.184   2.746
 8600WAT      O39750   5.057   5.749   0.992
 8600WAT     H139751   5.089   5.727   0.905
 8600WAT     H239752   4.977   5.798   0.978
 8601WAT      O39753   4.624   3.272   8.669
 8601WAT     H139754   4.655   3.182   8.673
 8601WAT     H239755   4.694   3.324   8.708
 8602WAT      O39756   2.537   1.662   9.952
 8602WAT     H139757   2.620   1.628   9.986
 8602WAT     H239758   2.560   1.747   9.914
 8603WAT      O39759   1.943   5.592  11.064
 8603WAT     H139760   1.917   5.580  11.155
 8603WAT     H239761   2.003   5.667  11.065
 8604WAT      O39762   0.698   5.543  12.083
 8604WAT     H139763   0.725   5.487  12.155
 8604WAT     H239764   0.699   5.632  12.119
 8605WAT      O39765   2.993   4.670   3.300
 8605WAT     H139766   3.087   4.662   3.282
 8605WAT     H239767   2.951   4.619   3.230
 8606WAT      O39768   0.282   3.008   9.349
 8606WAT     H139769   0.346   3.003   9.279
 8606WAT     H239770   0.198   2.989   9.307
 8607WAT      O39771   2.482   0.472   3.082
 8607WAT     H139772   2.482   0.427   2.997
 8607WAT     H239773   2.559   0.437   3.127
 8608WAT      O39774   5.388   1.929   0.935
 8608WAT     H139775   5.300   1.892   0.930
 8608WAT     H239776   5.419   1.933   0.845
 8609WAT      O39777   3.936   2.851   1.752
 8609WAT     H139778   3.968   2.768   1.788
 8609WAT     H239779   4.015   2.899   1.728
 8610WAT      O39780   3.801   4.402   8.228
 8610WAT     H139781   3.771   4.483   8.185
 8610WAT     H239782   3.866   4.431   8.292
 8611WAT      O39783   2.271   1.028   9.348
 8611WAT     H139784   2.223   0.964   9.295
 8611WAT     H239785   2.222   1.110   9.338
 8612WAT      O39786   0.371   0.387   1.337
 8612WAT     H139787   0.370   0.294   1.358
 8612WAT     H239788   0.423   0.427   1.407
 8613WAT      O39789   5.648   0.695   8.387
 8613WAT     H139790   5.742   0.707   8.402
 8613WAT     H239791   5.627   0.756   8.316
 8614WAT      O39792   1.437   3.710   3.169
 8614WAT     H139793   1.524   3.746   3.154
 8614WAT     H239794   1.433   3.632   3.114
 8615WAT      O39795   1.947   1.886   3.556
 8615WAT     H139796   2.010   1.829   3.511
 8615WAT     H239797   1.979   1.975   3.542
 8616WAT      O39798   1.252   0.623   0.124
 8616WAT     H139799   1.171   0.576   0.143
 8616WAT     H239800   1.228   0.715   0.128
 8617WAT      O39801   3.276   2.478   2.129
 8617WAT     H139802   3.209   2.480   2.197
 8617WAT     H239803   3.358   2.465   2.177
 8618WAT      O39804   0.409   3.429   2.377
 8618WAT     H139805   0.352   3.494   2.417
 8618WAT     H239806   0.498   3.459   2.397
 8619WAT      O39807   4.187   1.485   9.949
 8619WAT     H139808   4.281   1.500   9.939
 8619WAT     H239809   4.175   1.472  10.043
 8620WAT      O39810   2.741   5.997   9.802
 8620WAT     H139811   2.804   6.036   9.862
 8620WAT     H239812   2.793   5.941   9.744
 8621WAT      O39813   3.565   5.413   0.324
 8621WAT     H139814   3.594   5.340   0.378
 8621WAT     H239815   3.483   5.443   0.364
 8622WAT      O39816   4.499   4.588   4.703
 8622WAT     H139817   4.533   4.531   4.634
 8622WAT     H239818   4.540   4.555   4.783
 8623WAT      O39819   4.405   5.183  11.636
 8623WAT     H139820   4.353   5.264  11.634
 8623WAT     H239821   4.469   5.194  11.567
 8624WAT      O39822   2.963   1.953   1.346
 8624WAT     H139823   3.024   1.881   1.329
 8624WAT     H239824   2.890   1.913   1.394
 8625WAT      O39825   4.072   0.691  11.661
 8625WAT     H139826   4.084   0.695  11.566
 8625WAT     H239827   4.158   0.711  11.697
 8626WAT      O39828   5.905   4.091   3.407
 8626WAT     H139829   5.906   4.102   3.502
 8626WAT     H239830   5.812   4.093   3.384
 8627WAT      O39831   4.158   6.140   1.281
 8627WAT     H139832   4.073   6.162   1.317
 8627WAT     H239833   4.139   6.096   1.198
 8628WAT      O39834   5.983   1.955   7.892
 8628WAT     H139835   5.960   1.863   7.899
 8628WAT     H239836   6.078   1.958   7.898
 8629WAT      O39837   5.403   1.853   2.264
 8629WAT     H139838   5.368   1.844   2.353
 8629WAT     H239839   5.497   1.840   2.273
 8630WAT      O39840   4.441   1.763  10.964
 8630WAT     H139841   4.380   1.696  10.995
 8630WAT     H239842   4.472   1.806  11.044
 8631WAT      O39843   2.840   3.356  11.456
 8631WAT     H139844   2.842   3.329  11.548
 8631WAT     H239845   2.931   3.378  11.436
 8632WAT      O39846   1.554   0.539   3.890
 8632WAT     H139847   1.551   0.581   3.804
 8632WAT     H239848   1.610   0.462   3.878
 8633WAT      O39849   3.684   3.574   2.357
 8633WAT     H139850   3.596   3.542   2.376
 8633WAT     H239851   3.671   3.646   2.296
 8634WAT      O39852   5.350   4.005   1.002
 8634WAT     H139853   5.271   3.955   1.024
 8634WAT     H239854   5.364   4.062   1.078
 8635WAT      O39855   1.119   1.447  11.307
 8635WAT     H139856   1.026   1.436  11.327
 8635WAT     H239857   1.123   1.530  11.258
 8636WAT      O39858   0.731   1.022  11.067
 8636WAT     H139859   0.672   0.947  11.078
 8636WAT     H239860   0.755   1.047  11.156
 8637WAT      O39861   5.512   4.895   8.786
 8637WAT     H139862   5.548   4.841   8.716
 8637WAT     H239863   5.576   4.965   8.797
 8638WAT      O39864   3.073   1.970  11.151
 8638WAT     H139865   3.073   1.880  11.183
 8638WAT     H239866   3.150   1.976  11.095
 8639WAT      O39867   5.361   3.426   0.106
 8639WAT     H139868   5.336   3.491   0.040
 8639WAT     H239869   5.279   3.383   0.128
 8640WAT      O39870   3.653   2.247  11.248
 8640WAT     H139871   3.566   2.276  11.223
 8640WAT     H239872   3.692   2.322  11.293
 8641WAT      O39873   4.797   3.939   8.183
 8641WAT     H139874   4.719   3.896   8.148
 8641WAT     H239875   4.855   3.950   8.108
 8642WAT      O39876   4.756   5.500  10.206
 8642WAT     H139877   4.768   5.455  10.289
 8642WAT     H239878   4.843   5.530  10.182
 8643WAT      O39879   6.105   5.098  12.540
 8643WAT     H139880   6.050   5.172  12.517
 8643WAT     H239881   6.044   5.029  12.567
 8644WAT      O39882   4.924   5.272   3.778
 8644WAT     H139883   4.940   5.364   3.753
 8644WAT     H239884   4.868   5.238   3.708
 8645WAT      O39885   5.389   1.759  10.064
 8645WAT     H139886   5.340   1.755  10.146
 8645WAT     H239887   5.326   1.734   9.997
 8646WAT      O39888   3.215   1.736   2.156
 8646WAT     H139889   3.171   1.807   2.110
 8646WAT     H239890   3.308   1.759   2.155
 8647WAT      O39891   5.658   0.620  12.617
 8647WAT     H139892   5.617   0.542  12.655
 8647WAT     H239893   5.749   0.596  12.605
 8648WAT      O39894   5.105   5.262   3.313
 8648WAT     H139895   5.149   5.294   3.392
 8648WAT     H239896   5.116   5.167   3.317
 8649WAT      O39897   5.224   4.012   9.139
 8649WAT     H139898   5.161   4.081   9.162
 8649WAT     H239899   5.172   3.947   9.092
 8650WAT      O39900   5.621   5.269  11.343
 8650WAT     H139901   5.609   5.212  11.267
 8650WAT     H239902   5.534   5.275  11.382
 8651WAT      O39903   3.636   4.555   9.476
 8651WAT     H139904   3.578   4.496   9.428
 8651WAT     H239905   3.620   4.641   9.438
 8652WAT      O39906   3.752   1.022  10.595
 8652WAT     H139907   3.831   1.024  10.540
 8652WAT     H239908   3.682   0.995  10.535
 8653WAT      O39909   3.628   2.834   9.511
 8653WAT     H139910   3.540   2.872   9.505
 8653WAT     H239911   3.679   2.898   9.560
 8654WAT      O39912   0.562   6.150  12.424
 8654WAT     H139913   0.531   6.233  12.388
 8654WAT     H239914   0.618   6.174  12.497
 8655WAT      O39915   5.338   1.127   3.838
 8655WAT     H139916   5.386   1.161   3.913
 8655WAT     H239917   5.405   1.106   3.774
 8656WAT      O39918   2.340   3.945  11.188
 8656WAT     H139919   2.256   3.989  11.174
 8656WAT     H239920   2.317   3.852  11.197
 8657WAT      O39921   5.854   0.835  11.673
 8657WAT     H139922   5.909   0.798  11.743
 8657WAT     H239923   5.824   0.759  11.623
 8658WAT      O39924   4.903   1.762   4.020
 8658WAT     H139925   4.981   1.762   4.075
 8658WAT     H239926   4.923   1.827   3.952
 8659WAT      O39927   0.423   4.427   9.353
 8659WAT     H139928   0.378   4.345   9.334
 8659WAT     H239929   0.428   4.430   9.449
 8660WAT      O39930   2.653   0.574   9.808
 8660WAT     H139931   2.725   0.571   9.871
 8660WAT     H239932   2.581   0.527   9.851
 8661WAT      O39933   6.050   3.161   2.049
 8661WAT     H139934   5.956   3.147   2.039
 8661WAT     H239935   6.073   3.221   1.978
 8662WAT      O39936   1.517   5.067  10.559
 8662WAT     H139937   1.496   5.090  10.468
 8662WAT     H239938   1.498   5.147  10.608
 8663WAT      O39939   4.695   3.558  12.600
 8663WAT     H139940   4.606   3.591  12.615
 8663WAT     H239941   4.751   3.620  12.646
 8664WAT      O39942   6.126   3.023  10.766
 8664WAT     H139943   6.066   2.960  10.726
 8664WAT     H239944   6.213   2.985  10.752
 8665WAT      O39945   5.127   1.069   4.307
 8665WAT     H139946   5.051   1.120   4.334
 8665WAT     H239947   5.142   1.095   4.216
 8666WAT      O39948   4.925   5.057   0.048
 8666WAT     H139949   4.862   5.127   0.031
 8666WAT     H239950   4.924   5.047   0.144
 8667WAT      O39951   3.966   3.584   2.653
 8667WAT     H139952   3.925   3.662   2.616
 8667WAT     H239953   4.033   3.559   2.590
 8668WAT      O39954   4.712   3.083  10.727
 8668WAT     H139955   4.694   2.992  10.702
 8668WAT     H239956   4.773   3.076  10.801
 8669WAT      O39957   5.227   3.749   3.699
 8669WAT     H139958   5.220   3.659   3.667
 8669WAT     H239959   5.216   3.742   3.794
 8670WAT      O39960   3.896   6.107   7.885
 8670WAT     H139961   3.829   6.057   7.931
 8670WAT     H239962   3.860   6.196   7.881
 8671WAT      O39963   0.672   1.188  11.696
 8671WAT     H139964   0.623   1.121  11.744
 8671WAT     H239965   0.650   1.270  11.740
 8672WAT      O39966   4.904   1.474   0.330
 8672WAT     H139967   4.962   1.517   0.267
 8672WAT     H239968   4.817   1.504   0.307
 8673WAT      O39969   5.725   0.441   1.735
 8673WAT     H139970   5.658   0.500   1.769
 8673WAT     H239971   5.734   0.373   1.802
 8674WAT      O39972   2.800   1.355  11.753
 8674WAT     H139973   2.755   1.392  11.829
 8674WAT     H239974   2.893   1.373  11.768
 8675WAT      O39975   0.653   5.874   0.081
 8675WAT     H139976   0.726   5.931   0.105
 8675WAT     H239977   0.575   5.930   0.092
 8676WAT      O39978   1.503   4.284   2.279
 8676WAT     H139979   1.551   4.358   2.315
 8676WAT     H239980   1.552   4.207   2.308
 8677WAT      O39981   3.522   2.096   9.557
 8677WAT     H139982   3.527   2.090   9.462
 8677WAT     H239983   3.547   2.186   9.577
 8678WAT      O39984   0.876   1.748   9.950
 8678WAT     H139985   0.941   1.759   9.880
 8678WAT     H239986   0.917   1.686  10.011
 8679WAT      O39987   3.408   0.057   2.134
 8679WAT     H139988   3.478   0.025   2.077
 8679WAT     H239989   3.452   0.075   2.218
 8680WAT      O39990   2.694   0.367   2.378
 8680WAT     H139991   2.656   0.342   2.294
 8680WAT     H239992   2.738   0.288   2.409
 8681WAT      O39993   6.157   0.524  10.463
 8681WAT     H139994   6.144   0.541  10.369
 8681WAT     H239995   6.251   0.506  10.471
 8682WAT      O39996   2.743   2.953  10.276
 8682WAT     H139997   2.726   3.041  10.309
 8682WAT     H239998   2.729   2.960  10.181
 8683WAT      O39999   3.474   1.260   4.659
 8683WAT     H140000   3.402   1.251   4.721
 8683WAT     H240001   3.438   1.228   4.576
 8684WAT      O40002   4.686   2.460   2.991
 8684WAT     H140003   4.621   2.392   3.004
 8684WAT     H240004   4.635   2.541   2.983
 8685WAT      O40005   0.163   3.773   2.679
 8685WAT     H140006   0.226   3.731   2.621
 8685WAT     H240007   0.106   3.701   2.709
 8686WAT      O40008   4.944   4.518   1.505
 8686WAT     H140009   4.964   4.425   1.495
 8686WAT     H240010   4.854   4.521   1.537
 8687WAT      O40011   6.128   3.565   4.014
 8687WAT     H140012   6.148   3.480   3.973
 8687WAT     H240013   6.034   3.577   4.000
 8688WAT      O40014   4.336   0.825  10.365
 8688WAT     H140015   4.360   0.746  10.412
 8688WAT     H240016   4.412   0.882  10.373
 8689WAT      O40017   6.001   6.144  12.257
 8689WAT     H140018   6.061   6.104  12.194
 8689WAT     H240019   5.914   6.115  12.230
 8690WAT      O40020   6.187   1.759   3.596
 8690WAT     H140021   6.239   1.704   3.538
 8690WAT     H240022   6.160   1.833   3.540
 8691WAT      O40023   4.659   2.940   8.865
 8691WAT     H140024   4.725   2.970   8.927
 8691WAT     H240025   4.603   3.016   8.851
 8692WAT      O40026   3.280   4.508  10.630
 8692WAT     H140027   3.318   4.506  10.543
 8692WAT     H240028   3.262   4.416  10.652
 8693WAT      O40029   1.850   5.466   3.397
 8693WAT     H140030   1.826   5.403   3.329
 8693WAT     H240031   1.911   5.417   3.453
 8694WAT      O40032   1.629   2.994   3.878
 8694WAT     H140033   1.622   3.061   3.946
 8694WAT     H240034   1.539   2.966   3.862
 8695WAT      O40035   0.815   1.273   9.167
 8695WAT     H140036   0.825   1.283   9.261
 8695WAT     H240037   0.774   1.354   9.138
 8696WAT      O40038   1.440   0.857   9.248
 8696WAT     H140039   1.447   0.852   9.153
 8696WAT     H240040   1.525   0.827   9.280
 8697WAT      O40041   1.386   3.444  10.632
 8697WAT     H140042   1.342   3.519  10.671
 8697WAT     H240043   1.338   3.427  10.552
 8698WAT      O40044   3.306   5.262   2.550
 8698WAT     H140045   3.259   5.187   2.513
 8698WAT     H240046   3.255   5.287   2.627
 8699WAT      O40047   0.773   1.784   1.476
 8699WAT     H140048   0.796   1.824   1.392
 8699WAT     H240049   0.801   1.848   1.542
 8700WAT      O40050   3.732   0.347   2.761
 8700WAT     H140051   3.681   0.302   2.693
 8700WAT     H240052   3.701   0.309   2.843
 8701WAT      O40053   5.551   0.293   2.291
 8701WAT     H140054   5.582   0.209   2.325
 8701WAT     H240055   5.509   0.271   2.208
 8702WAT      O40056   3.542   3.535   1.846
 8702WAT     H140057   3.621   3.550   1.899
 8702WAT     H240058   3.482   3.605   1.872
 8703WAT      O40059   1.587   4.887   9.451
 8703WAT     H140060   1.617   4.827   9.519
 8703WAT     H240061   1.492   4.892   9.463
 8704WAT      O40062   4.856   3.393  10.717
 8704WAT     H140063   4.889   3.382  10.806
 8704WAT     H240064   4.850   3.304  10.682
 8705WAT      O40065   1.302   1.628   3.111
 8705WAT     H140066   1.306   1.693   3.182
 8705WAT     H240067   1.365   1.659   3.046
 8706WAT      O40068   2.501   0.468  12.270
 8706WAT     H140069   2.484   0.448  12.178
 8706WAT     H240070   2.420   0.508  12.301
 8707WAT      O40071   0.236   0.108   8.765
 8707WAT     H140072   0.298   0.181   8.761
 8707WAT     H240073   0.174   0.125   8.694
 8708WAT      O40074   4.216   5.427  10.773
 8708WAT     H140075   4.215   5.519  10.747
 8708WAT     H240076   4.126   5.397  10.759
 8709WAT      O40077   0.529   2.488   4.463
 8709WAT     H140078   0.463   2.548   4.429
 8709WAT     H240079   0.509   2.482   4.557
 8710WAT      O40080   0.311   1.707   8.201
 8710WAT     H140081   0.334   1.761   8.125
 8710WAT     H240082   0.269   1.768   8.262
 8711WAT      O40083   5.015   0.129   2.738
 8711WAT     H140084   5.080   0.061   2.722
 8711WAT     H240085   4.933   0.081   2.750
 8712WAT      O40086   3.618   6.127  12.138
 8712WAT     H140087   3.632   6.156  12.048
 8712WAT     H240088   3.547   6.062  12.132
 8713WAT      O40089   5.727   1.003   8.330
 8713WAT     H140090   5.805   1.009   8.275
 8713WAT     H240091   5.662   1.058   8.286
 8714WAT      O40092   3.182   4.935   2.729
 8714WAT     H140093   3.135   5.012   2.698
 8714WAT     H240094   3.126   4.898   2.796
 8715WAT      O40095   0.331   1.364   3.446
 8715WAT     H140096   0.368   1.418   3.516
 8715WAT     H240097   0.262   1.313   3.488
 8716WAT      O40098   2.259   5.364   4.469
 8716WAT     H140099   2.242   5.286   4.522
 8716WAT     H240100   2.207   5.351   4.390
 8717WAT      O40101   1.516   5.947  11.452
 8717WAT     H140102   1.547   5.941  11.362
 8717WAT     H240103   1.421   5.937  11.446
 8718WAT      O40104   2.255   2.468  10.969
 8718WAT     H140105   2.287   2.477  11.059
 8718WAT     H240106   2.173   2.419  10.978
 8719WAT      O40107   3.981   2.822  12.326
 8719WAT     H140108   3.933   2.898  12.358
 8719WAT     H240109   3.957   2.815  12.234
 8720WAT      O40110   6.240   5.474  12.052
 8720WAT     H140111   6.147   5.492  12.065
 8720WAT     H240112   6.285   5.534  12.112
 8721WAT      O40113   5.221   3.785  10.740
 8721WAT     H140114   5.273   3.757  10.664
 8721WAT     H240115   5.182   3.705  10.774
 8722WAT      O40116   5.710   1.588   9.719
 8722WAT     H140117   5.723   1.591   9.624
 8722WAT     H240118   5.671   1.672   9.741
 8723WAT      O40119   4.255   3.810  10.306
 8723WAT     H140120   4.222   3.873  10.370
 8723WAT     H240121   4.219   3.840  10.222
 8724WAT      O40122   2.573   1.210   9.752
 8724WAT     H140123   2.642   1.229   9.816
 8724WAT     H240124   2.556   1.116   9.762
 8725WAT      O40125   3.184   0.509  11.334
 8725WAT     H140126   3.090   0.495  11.345
 8725WAT     H240127   3.206   0.578  11.397
 8726WAT      O40128   0.190   3.482   2.898
 8726WAT     H140129   0.108   3.460   2.941
 8726WAT     H240130   0.221   3.399   2.861
 8727WAT      O40131   3.196   2.949   4.301
 8727WAT     H140132   3.109   2.909   4.310
 8727WAT     H240133   3.181   3.042   4.321
 8728WAT      O40134   3.976   5.068   8.309
 8728WAT     H140135   3.991   5.150   8.356
 8728WAT     H240136   3.921   5.092   8.235
 8729WAT      O40137   3.985   2.307   0.192
 8729WAT     H140138   4.068   2.336   0.154
 8729WAT     H240139   3.976   2.216   0.164
 8730WAT      O40140   0.336   1.362   2.718
 8730WAT     H140141   0.324   1.406   2.633
 8730WAT     H240142   0.301   1.274   2.704
 8731WAT      O40143   0.620   0.808   3.720
 8731WAT     H140144   0.628   0.863   3.642
 8731WAT     H240145   0.598   0.721   3.686
 8732WAT      O40146   5.050   0.236  11.159
 8732WAT     H140147   4.998   0.310  11.129
 8732WAT     H240148   5.110   0.218  11.087
 8733WAT      O40149   4.743   5.696   9.270
 8733WAT     H140150   4.703   5.709   9.184
 8733WAT     H240151   4.808   5.766   9.277
 8734WAT      O40152   3.777   4.677   2.266
 8734WAT     H140153   3.758   4.696   2.358
 8734WAT     H240154   3.691   4.659   2.227
 8735WAT      O40155   5.664   4.465  10.087
 8735WAT     H140156   5.618   4.453  10.003
 8735WAT     H240157   5.696   4.377  10.108
 8736WAT      O40158   3.450   0.983   1.811
 8736WAT     H140159   3.383   1.005   1.876
 8736WAT     H240160   3.401   0.964   1.732
 8737WAT      O40161   0.566   2.480   0.516
 8737WAT     H140162   0.556   2.385   0.503
 8737WAT     H240163   0.642   2.503   0.463
 8738WAT      O40164   3.154   4.981   3.648
 8738WAT     H140165   3.113   4.980   3.735
 8738WAT     H240166   3.159   5.074   3.625
 8739WAT      O40167   0.099   0.558  12.314
 8739WAT     H140168   0.025   0.609  12.282
 8739WAT     H240169   0.170   0.621  12.322
 8740WAT      O40170   1.040   0.535   2.964
 8740WAT     H140171   1.112   0.597   2.974
 8740WAT     H240172   0.973   0.565   3.026
 8741WAT      O40173   1.148   2.058   3.051
 8741WAT     H140174   1.184   2.145   3.067
 8741WAT     H240175   1.205   1.999   3.100
 8742WAT      O40176   2.178   1.310   8.833
 8742WAT     H140177   2.262   1.263   8.833
 8742WAT     H240178   2.126   1.266   8.766
 8743WAT      O40179   2.844   2.015   2.990
 8743WAT     H140180   2.787   2.061   2.929
 8743WAT     H240181   2.932   2.029   2.956
 8744WAT      O40182   4.823   3.993   2.622
 8744WAT     H140183   4.767   3.954   2.555
 8744WAT     H240184   4.912   3.966   2.598
 8745WAT      O40185   5.781   6.038   1.416
 8745WAT     H140186   5.771   6.132   1.432
 8745WAT     H240187   5.707   6.015   1.360
 8746WAT      O40188   0.855   2.323   2.800
 8746WAT     H140189   0.950   2.325   2.812
 8746WAT     H240190   0.840   2.365   2.716
 8747WAT      O40191   3.548   2.869   1.007
 8747WAT     H140192   3.515   2.946   0.962
 8747WAT     H240193   3.471   2.817   1.028
 8748WAT      O40194   0.022   3.417   9.264
 8748WAT     H140195   0.076   3.377   9.333
 8748WAT     H240196  -0.058   3.365   9.263
 8749WAT      O40197   4.802   0.484   1.940
 8749WAT     H140198   4.812   0.542   1.865
 8749WAT     H240199   4.825   0.539   2.016
 8750WAT      O40200   6.249   1.032   9.105
 8750WAT     H140201   6.177   1.051   9.045
 8750WAT     H240202   6.224   1.075   9.187
 8751WAT      O40203   4.780   4.265   1.217
 8751WAT     H140204   4.851   4.278   1.156
 8751WAT     H240205   4.729   4.346   1.214
 8752WAT      O40206   0.889   5.986  11.330
 8752WAT     H140207   0.964   6.012  11.277
 8752WAT     H240208   0.899   6.035  11.412
 8753WAT      O40209   6.140   2.052   9.086
 8753WAT     H140210   6.215   1.998   9.112
 8753WAT     H240211   6.118   2.021   8.998
 8754WAT      O40212   3.349   3.672   9.603
 8754WAT     H140213   3.416   3.693   9.539
 8754WAT     H240214   3.386   3.700   9.687
 8755WAT      O40215   3.724   1.603   3.521
 8755WAT     H140216   3.629   1.599   3.538
 8755WAT     H240217   3.735   1.684   3.471
 8756WAT      O40218   5.912   3.920   1.255
 8756WAT     H140219   5.954   3.917   1.341
 8756WAT     H240220   5.873   3.833   1.244
 8757WAT      O40221   5.961   5.751   7.844
 8757WAT     H140222   5.960   5.769   7.750
 8757WAT     H240223   5.980   5.657   7.850
 8758WAT      O40224   4.275   2.498   8.064
 8758WAT     H140225   4.348   2.474   8.122
 8758WAT     H240226   4.307   2.574   8.015
 8759WAT      O40227   0.311   3.944   3.882
 8759WAT     H140228   0.264   3.861   3.886
 8759WAT     H240229   0.247   4.010   3.908
 8760WAT      O40230   6.117   0.903   0.546
 8760WAT     H140231   6.044   0.965   0.550
 8760WAT     H240232   6.146   0.894   0.636
 8761WAT      O40233   3.852   1.182   3.287
 8761WAT     H140234   3.871   1.136   3.206
 8761WAT     H240235   3.759   1.163   3.304
 8762WAT      O40236   1.705   4.486   2.678
 8762WAT     H140237   1.611   4.497   2.663
 8762WAT     H240238   1.734   4.428   2.607
 8763WAT      O40239   0.030   4.434  11.851
 8763WAT     H140240  -0.065   4.446  11.856
 8763WAT     H240241   0.061   4.508  11.799
 8764WAT      O40242   6.113   4.011   0.837
 8764WAT     H140243   6.102   3.946   0.906
 8764WAT     H240244   6.118   3.960   0.756
 8765WAT      O40245   2.366   0.954  10.471
 8765WAT     H140246   2.284   0.920  10.435
 8765WAT     H240247   2.357   0.946  10.566
 8766WAT      O40248   6.003   4.901   8.763
 8766WAT     H140249   6.091   4.869   8.781
 8766WAT     H240250   5.959   4.901   8.848
 8767WAT      O40251   5.903   2.723   0.485
 8767WAT     H140252   5.924   2.643   0.437
 8767WAT     H240253   5.946   2.712   0.570
 8768WAT      O40254   0.326   5.079   8.414
 8768WAT     H140255   0.342   5.103   8.505
 8768WAT     H240256   0.297   5.160   8.373
 8769WAT      O40257   0.654   1.765   9.020
 8769WAT     H140258   0.597   1.804   9.086
 8769WAT     H240259   0.609   1.779   8.937
 8770WAT      O40260   5.098   5.396  10.754
 8770WAT     H140261   5.185   5.357  10.763
 8770WAT     H240262   5.049   5.332  10.703
 8771WAT      O40263   1.240   2.751  11.354
 8771WAT     H140264   1.249   2.831  11.406
 8771WAT     H240265   1.231   2.782  11.264
 8772WAT      O40266   2.506   3.331   0.160
 8772WAT     H140267   2.577   3.311   0.221
 8772WAT     H240268   2.498   3.426   0.162
 8773WAT      O40269   5.944   5.875  12.111
 8773WAT     H140270   5.946   5.798  12.167
 8773WAT     H240271   5.852   5.902  12.110
 8774WAT      O40272   2.160   1.697   8.348
 8774WAT     H140273   2.079   1.698   8.297
 8774WAT     H240274   2.160   1.612   8.392
 8775WAT      O40275   6.009   0.786   9.332
 8775WAT     H140276   6.080   0.722   9.326
 8775WAT     H240277   6.017   0.838   9.253
 8776WAT      O40278   1.489   5.671   1.686
 8776WAT     H140279   1.523   5.584   1.706
 8776WAT     H240280   1.538   5.730   1.744
 8777WAT      O40281   2.851   2.655   2.349
 8777WAT     H140282   2.850   2.560   2.336
 8777WAT     H240283   2.925   2.670   2.408
 8778WAT      O40284   4.759   5.876   0.939
 8778WAT     H140285   4.735   5.811   0.873
 8778WAT     H240286   4.727   5.959   0.903
 8779WAT      O40287   5.374   5.947   4.464
 8779WAT     H140288   5.307   5.881   4.446
 8779WAT     H240289   5.354   5.978   4.552
 8780WAT      O40290   1.920   5.021   9.756
 8780WAT     H140291   1.932   4.996   9.848
 8780WAT     H240292   1.931   4.940   9.707
 8781WAT      O40293   1.605   1.872   0.705
 8781WAT     H140294   1.694   1.850   0.678
 8781WAT     H240295   1.609   1.883   0.800
 8782WAT      O40296   1.487   4.748   9.914
 8782WAT     H140297   1.502   4.787  10.000
 8782WAT     H240298   1.483   4.822   9.854
 8783WAT      O40299   3.541   3.539   9.011
 8783WAT     H140300   3.473   3.496   9.062
 8783WAT     H240301   3.555   3.481   8.936
 8784WAT      O40302   0.824   1.869   4.008
 8784WAT     H140303   0.801   1.934   3.941
 8784WAT     H240304   0.918   1.880   4.021
 8785WAT      O40305   4.039   0.049   0.753
 8785WAT     H140306   3.976   0.121   0.755
 8785WAT     H240307   4.010  -0.012   0.820
 8786WAT      O40308   1.319   1.971   9.177
 8786WAT     H140309   1.263   1.961   9.253
 8786WAT     H240310   1.360   2.057   9.188
 8787WAT      O40311   5.341   5.238  10.831
 8787WAT     H140312   5.286   5.229  10.908
 8787WAT     H240313   5.430   5.221  10.862
 8788WAT      O40314   4.703   4.759   9.686
 8788WAT     H140315   4.675   4.686   9.631
 8788WAT     H240316   4.731   4.719   9.767
 8789WAT      O40317   0.360   4.165  12.065
 8789WAT     H140318   0.420   4.222  12.113
 8789WAT     H240319   0.404   4.148  11.982
 8790WAT      O40320   0.890   5.123   9.749
 8790WAT     H140321   0.810   5.140   9.700
 8790WAT     H240322   0.872   5.043   9.798
 8791WAT      O40323   2.433   3.702   8.022
 8791WAT     H140324   2.395   3.623   7.982
 8791WAT     H240325   2.444   3.763   7.949
 8792WAT      O40326   5.286   0.525   2.352
 8792WAT     H140327   5.336   0.500   2.429
 8792WAT     H240328   5.351   0.527   2.281
 8793WAT      O40329   0.692   2.552   8.591
 8793WAT     H140330   0.750   2.485   8.627
 8793WAT     H240331   0.740   2.586   8.515
 8794WAT      O40332   1.301   5.492   4.755
 8794WAT     H140333   1.240   5.470   4.825
 8794WAT     H240334   1.308   5.587   4.758
 8795WAT      O40335   4.527   0.778   3.231
 8795WAT     H140336   4.540   0.788   3.326
 8795WAT     H240337   4.547   0.864   3.195
 8796WAT      O40338   1.545   0.696  11.870
 8796WAT     H140339   1.511   0.615  11.908
 8796WAT     H240340   1.488   0.713  11.794
 8797WAT      O40341   1.686   5.153   9.816
 8797WAT     H140342   1.765   5.115   9.777
 8797WAT     H240343   1.718   5.204   9.890
 8798WAT      O40344   2.740   4.760   3.197
 8798WAT     H140345   2.801   4.834   3.201
 8798WAT     H240346   2.771   4.707   3.124
 8799WAT      O40347   0.284   1.058  12.193
 8799WAT     H140348   0.243   0.972  12.201
 8799WAT     H240349   0.375   1.040  12.174
 8800WAT      O40350   5.353   1.625   9.000
 8800WAT     H140351   5.436   1.596   9.036
 8800WAT     H240352   5.326   1.555   8.941
 8801WAT      O40353   3.105   2.326   3.048
 8801WAT     H140354   3.130   2.417   3.035
 8801WAT     H240355   3.081   2.295   2.961
 8802WAT      O40356   5.660   2.034  10.539
 8802WAT     H140357   5.755   2.046  10.529
 8802WAT     H240358   5.647   2.031  10.634
 8803WAT      O40359   2.399   5.124   2.292
 8803WAT     H140360   2.361   5.102   2.377
 8803WAT     H240361   2.355   5.205   2.267
 8804WAT      O40362   6.133   2.587  11.417
 8804WAT     H140363   6.057   2.531  11.430
 8804WAT     H240364   6.099   2.665  11.374
 8805WAT      O40365   2.573   5.418   0.351
 8805WAT     H140366   2.580   5.360   0.275
 8805WAT     H240367   2.643   5.482   0.340
 8806WAT      O40368   4.497   0.033   9.611
 8806WAT     H140369   4.558  -0.019   9.664
 8806WAT     H240370   4.410   0.003   9.638
 8807WAT      O40371   2.982   0.276   8.848
 8807WAT     H140372   3.068   0.278   8.807
 8807WAT     H240373   2.999   0.248   8.938
 8808WAT      O40374   2.655   0.194  10.221
 8808WAT     H140375   2.596   0.265  10.244
 8808WAT     H240376   2.741   0.236  10.213
 8809WAT      O40377   3.776   5.855  10.235
 8809WAT     H140378   3.814   5.850  10.323
 8809WAT     H240379   3.810   5.937  10.199
 8810WAT      O40380   5.374   2.669   2.922
 8810WAT     H140381   5.284   2.651   2.894
 8810WAT     H240382   5.420   2.587   2.909
 8811WAT      O40383   4.983   2.380   8.631
 8811WAT     H140384   5.040   2.434   8.685
 8811WAT     H240385   4.909   2.358   8.689
 8812WAT      O40386   5.934   4.238  11.645
 8812WAT     H140387   5.842   4.249  11.620
 8812WAT     H240388   5.958   4.151  11.613
 8813WAT      O40389   4.871   1.496   1.657
 8813WAT     H140390   4.780   1.476   1.678
 8813WAT     H240391   4.890   1.577   1.704
 8814WAT      O40392   6.062   1.632  11.346
 8814WAT     H140393   6.102   1.547  11.330
 8814WAT     H240394   5.975   1.625  11.307
 8815WAT      O40395   0.719   5.552   1.737
 8815WAT     H140396   0.643   5.545   1.795
 8815WAT     H240397   0.780   5.486   1.770
 8816WAT      O40398   4.386   3.259   1.374
 8816WAT     H140399   4.320   3.327   1.385
 8816WAT     H240400   4.461   3.304   1.336
 8817WAT      O40401   5.919   6.067  10.614
 8817WAT     H140402   6.001   6.089  10.657
 8817WAT     H240403   5.934   5.981  10.576
 8818WAT      O40404   1.983   4.004   2.118
 8818WAT     H140405   2.058   4.057   2.091
 8818WAT     H240406   2.017   3.944   2.184
 8819WAT      O40407   0.698   3.108   3.589
 8819WAT     H140408   0.628   3.047   3.565
 8819WAT     H240409   0.715   3.158   3.509
 8820WAT      O40410   0.275   3.094   3.150
 8820WAT     H140411   0.341   3.114   3.217
 8820WAT     H240412   0.316   3.026   3.096
 8821WAT      O40413   0.690   2.220   3.611
 8821WAT     H140414   0.604   2.216   3.568
 8821WAT     H240415   0.717   2.311   3.600
 8822WAT      O40416   2.120   3.827   1.224
 8822WAT     H140417   2.030   3.807   1.198
 8822WAT     H240418   2.169   3.746   1.207
 8823WAT      O40419   1.692   0.836   8.100
 8823WAT     H140420   1.725   0.866   8.015
 8823WAT     H240421   1.601   0.813   8.084
 8824WAT      O40422   1.943   3.808   1.610
 8824WAT     H140423   1.954   3.727   1.560
 8824WAT     H240424   1.967   3.785   1.699
 8825WAT      O40425   2.798   3.990   0.955
 8825WAT     H140426   2.807   3.960   0.864
 8825WAT     H240427   2.706   4.014   0.963
 8826WAT      O40428   5.150   5.594   9.675
 8826WAT     H140429   5.133   5.529   9.744
 8826WAT     H240430   5.123   5.551   9.594
 8827WAT      O40431   5.772   2.137   2.335
 8827WAT     H140432   5.687   2.173   2.360
 8827WAT     H240433   5.828   2.152   2.411
 8828WAT      O40434   2.721   4.126   8.079
 8828WAT     H140435   2.687   4.208   8.113
 8828WAT     H240436   2.709   4.132   7.984
 8829WAT      O40437   1.240   5.663   4.997
 8829WAT     H140438   1.165   5.681   5.053
 8829WAT     H240439   1.272   5.750   4.972
 8830WAT      O40440   4.131   3.802  12.354
 8830WAT     H140441   4.187   3.867  12.313
 8830WAT     H240442   4.062   3.853  12.397
 8831WAT      O40443   5.631   4.937  10.245
 8831WAT     H140444   5.661   4.907  10.330
 8831WAT     H240445   5.634   4.859  10.189
 8832WAT      O40446   0.105   5.499  11.585
 8832WAT     H140447   0.192   5.466  11.608
 8832WAT     H240448   0.047   5.457  11.648
 8833WAT      O40449   3.786   3.711   1.141
 8833WAT     H140450   3.776   3.689   1.233
 8833WAT     H240451   3.698   3.736   1.112
 8834WAT      O40452   0.740   4.856   7.611
 8834WAT     H140453   0.715   4.946   7.634
 8834WAT     H240454   0.727   4.807   7.692
 8835WAT      O40455   3.607   4.951   1.307
 8835WAT     H140456   3.583   4.990   1.222
 8835WAT     H240457   3.701   4.967   1.314
 8836WAT      O40458   0.499   4.616   9.172
 8836WAT     H140459   0.480   4.556   9.244
 8836WAT     H240460   0.579   4.581   9.132
 8837WAT      O40461   5.793   5.138   3.925
 8837WAT     H140462   5.799   5.192   4.004
 8837WAT     H240463   5.699   5.125   3.912
 8838WAT      O40464   2.259   3.641  10.754
 8838WAT     H140465   2.203   3.718  10.747
 8838WAT     H240466   2.348   3.675  10.743
 8839WAT      O40467   3.892   0.490   0.581
 8839WAT     H140468   3.880   0.558   0.648
 8839WAT     H240469   3.846   0.524   0.504
 8840WAT      O40470   3.624   2.775  12.053
 8840WAT     H140471   3.684   2.804  11.985
 8840WAT     H240472   3.542   2.820  12.034
 8841WAT      O40473   0.475   0.853   8.363
 8841WAT     H140474   0.473   0.771   8.313
 8841WAT     H240475   0.449   0.920   8.299
 8842WAT      O40476   3.049   4.894  12.007
 8842WAT     H140477   2.995   4.919  12.082
 8842WAT     H240478   2.998   4.924  11.931
 8843WAT      O40479   2.089   0.248  11.184
 8843WAT     H140480   2.181   0.273  11.188
 8843WAT     H240481   2.059   0.249  11.275
 8844WAT      O40482   4.571   0.029   1.354
 8844WAT     H140483   4.611  -0.047   1.396
 8844WAT     H240484   4.636   0.098   1.362
 8845WAT      O40485   4.859   4.573   0.816
 8845WAT     H140486   4.949   4.593   0.790
 8845WAT     H240487   4.867   4.501   0.878
 8846WAT      O40488   4.471   5.939   2.550
 8846WAT     H140489   4.516   6.022   2.534
 8846WAT     H240490   4.528   5.893   2.612
 8847WAT      O40491   5.365   5.892   0.879
 8847WAT     H140492   5.374   5.866   0.970
 8847WAT     H240493   5.429   5.840   0.832
 8848WAT      O40494   6.159   5.245   8.185
 8848WAT     H140495   6.169   5.178   8.117
 8848WAT     H240496   6.231   5.306   8.168
 8849WAT      O40497   2.971   5.166   9.677
 8849WAT     H140498   2.876   5.169   9.686
 8849WAT     H240499   2.988   5.175   9.583
 8850WAT      O40500   1.543   2.648  11.701
 8850WAT     H140501   1.475   2.711  11.725
 8850WAT     H240502   1.494   2.574  11.664
 8851WAT      O40503   3.881   0.520  10.893
 8851WAT     H140504   3.944   0.569  10.840
 8851WAT     H240505   3.908   0.536  10.983
 8852WAT      O40506   0.909   6.053   0.166
 8852WAT     H140507   0.985   6.111   0.171
 8852WAT     H240508   0.946   5.967   0.146
 8853WAT      O40509   4.621   0.701  10.571
 8853WAT     H140510   4.698   0.645  10.585
 8853WAT     H240511   4.641   0.781  10.619
 8854WAT      O40512   6.187   4.799   4.572
 8854WAT     H140513   6.249   4.759   4.511
 8854WAT     H240514   6.222   4.886   4.587
 8855WAT      O40515   4.176   2.929   1.620
 8855WAT     H140516   4.186   2.848   1.570
 8855WAT     H240517   4.266   2.958   1.637
 8856WAT      O40518   6.050   4.478   8.376
 8856WAT     H140519   6.039   4.406   8.315
 8856WAT     H240520   6.124   4.452   8.431
 8857WAT      O40521   4.365   3.265   8.748
 8857WAT     H140522   4.334   3.183   8.710
 8857WAT     H240523   4.455   3.274   8.716
 8858WAT      O40524   3.390   4.489   2.384
 8858WAT     H140525   3.349   4.495   2.298
 8858WAT     H240526   3.431   4.575   2.397
 8859WAT      O40527   3.953   4.165  11.639
 8859WAT     H140528   4.036   4.119  11.628
 8859WAT     H240529   3.945   4.218  11.559
 8860WAT      O40530   2.084   0.333   3.794
 8860WAT     H140531   2.116   0.310   3.881
 8860WAT     H240532   2.154   0.308   3.735
 8861WAT      O40533   3.682   0.226   2.993
 8861WAT     H140534   3.709   0.269   3.074
 8861WAT     H240535   3.586   0.226   2.996
 8862WAT      O40536   5.399   4.508   1.040
 8862WAT     H140537   5.481   4.546   1.071
 8862WAT     H240538   5.381   4.552   0.958
 8863WAT      O40539   3.683   3.895  10.320
 8863WAT     H140540   3.776   3.872  10.316
 8863WAT     H240541   3.645   3.835  10.384
 8864WAT      O40542   0.348   5.748   9.743
 8864WAT     H140543   0.312   5.837   9.740
 8864WAT     H240544   0.277   5.693   9.710
 8865WAT      O40545   1.862   5.002   8.944
 8865WAT     H140546   1.803   5.020   9.017
 8865WAT     H240547   1.808   4.952   8.882
 8866WAT      O40548   2.577   4.966   3.370
 8866WAT     H140549   2.599   4.987   3.280
 8866WAT     H240550   2.559   4.872   3.369
 8867WAT      O40551   0.298   1.859   4.524
 8867WAT     H140552   0.273   1.815   4.443
 8867WAT     H240553   0.381   1.818   4.549
 8868WAT      O40554   1.526   2.019  11.862
 8868WAT     H140555   1.518   2.072  11.941
 8868WAT     H240556   1.464   1.947  11.875
 8869WAT      O40557   1.746   4.973  10.695
 8869WAT     H140558   1.683   4.959  10.625
 8869WAT     H240559   1.775   5.063  10.684
 8870WAT      O40560   5.008   0.275  12.220
 8870WAT     H140561   4.993   0.190  12.177
 8870WAT     H240562   5.097   0.299  12.196
 8871WAT      O40563   1.977   4.108   9.137
 8871WAT     H140564   1.894   4.122   9.091
 8871WAT     H240565   1.986   4.013   9.142
 8872WAT      O40566   0.544   0.992  12.205
 8872WAT     H140567   0.637   1.015  12.207
 8872WAT     H240568   0.535   0.922  12.270
 8873WAT      O40569   2.451   1.999   3.608
 8873WAT     H140570   2.389   2.050   3.660
 8873WAT     H240571   2.423   2.012   3.518
 8874WAT      O40572   4.312   2.205   3.584
 8874WAT     H140573   4.216   2.214   3.590
 8874WAT     H240574   4.332   2.131   3.641
 8875WAT      O40575   5.542   0.170  12.410
 8875WAT     H140576   5.507   0.258  12.415
 8875WAT     H240577   5.520   0.130  12.494
 8876WAT      O40578   3.234   4.575  12.463
 8876WAT     H140579   3.243   4.650  12.521
 8876WAT     H240580   3.214   4.502  12.521
 8877WAT      O40581   0.276   0.654   1.226
 8877WAT     H140582   0.275   0.562   1.252
 8877WAT     H240583   0.186   0.674   1.200
 8878WAT      O40584   0.335   4.270   3.451
 8878WAT     H140585   0.322   4.274   3.546
 8878WAT     H240586   0.270   4.208   3.420
 8879WAT      O40587   2.443   4.882   3.062
 8879WAT     H140588   2.438   4.829   3.141
 8879WAT     H240589   2.518   4.940   3.076
 8880WAT      O40590   2.426   2.456   9.032
 8880WAT     H140591   2.482   2.379   9.035
 8880WAT     H240592   2.475   2.524   9.079
 8881WAT      O40593   1.695   0.968   4.116
 8881WAT     H140594   1.656   1.050   4.146
 8881WAT     H240595   1.780   0.965   4.160
 8882WAT      O40596   5.352   2.224   1.700
 8882WAT     H140597   5.377   2.142   1.742
 8882WAT     H240598   5.421   2.241   1.635
 8883WAT      O40599   5.596   4.800   3.666
 8883WAT     H140600   5.660   4.857   3.624
 8883WAT     H240601   5.628   4.791   3.756
 8884WAT      O40602   0.316   5.476   0.647
 8884WAT     H140603   0.293   5.502   0.558
 8884WAT     H240604   0.254   5.522   0.703
 8885WAT      O40605   6.033   1.847  12.662
 8885WAT     H140606   5.946   1.878  12.690
 8885WAT     H240607   6.015   1.792  12.586
 8886WAT      O40608   0.678   6.175   0.225
 8886WAT     H140609   0.693   6.264   0.193
 8886WAT     H240610   0.763   6.133   0.221
 8887WAT      O40611   0.815   0.693   4.001
 8887WAT     H140612   0.832   0.672   4.093
 8887WAT     H240613   0.783   0.784   4.003
 8888WAT      O40614   1.381   2.844   4.762
 8888WAT     H140615   1.366   2.927   4.717
 8888WAT     H240616   1.353   2.777   4.700
 8889WAT      O40617   5.089   0.498   2.163
 8889WAT     H140618   5.156   0.519   2.229
 8889WAT     H240619   5.008   0.535   2.198
 8890WAT      O40620   0.376   3.060  11.604
 8890WAT     H140621   0.340   2.973  11.587
 8890WAT     H240622   0.377   3.103  11.519
 8891WAT      O40623   1.566   1.838  12.577
 8891WAT     H140624   1.640   1.845  12.517
 8891WAT     H240625   1.502   1.785  12.530
 8892WAT      O40626   0.535   6.013   8.698
 8892WAT     H140627   0.556   6.084   8.759
 8892WAT     H240628   0.462   6.047   8.646
 8893WAT      O40629   2.107   6.135   3.289
 8893WAT     H140630   2.019   6.123   3.324
 8893WAT     H240631   2.165   6.100   3.357
 8894WAT      O40632   6.121   4.065  11.130
 8894WAT     H140633   6.072   3.990  11.096
 8894WAT     H240634   6.150   4.037  11.217
 8895WAT      O40635   3.233   0.477  11.874
 8895WAT     H140636   3.269   0.450  11.959
 8895WAT     H240637   3.265   0.566  11.861
 8896WAT      O40638   1.455   1.288   9.835
 8896WAT     H140639   1.421   1.227   9.901
 8896WAT     H240640   1.376   1.326   9.796
 8897WAT      O40641   1.071   5.487   1.543
 8897WAT     H140642   1.123   5.462   1.466
 8897WAT     H240643   1.015   5.410   1.559
 8898WAT      O40644   0.891   5.491  11.291
 8898WAT     H140645   0.814   5.444  11.325
 8898WAT     H240646   0.879   5.580  11.323
 8899WAT      O40647   4.088   4.658   9.437
 8899WAT     H140648   4.039   4.707   9.503
 8899WAT     H240649   4.110   4.576   9.480
 8900WAT      O40650   1.532   2.289   8.370
 8900WAT     H140651   1.539   2.371   8.420
 8900WAT     H240652   1.595   2.231   8.412
 8901WAT      O40653   1.259   4.191   2.369
 8901WAT     H140654   1.250   4.228   2.456
 8901WAT     H240655   1.340   4.228   2.334
 8902WAT      O40656   5.230   4.413   0.119
 8902WAT     H140657   5.172   4.489   0.125
 8902WAT     H240658   5.232   4.391   0.026
 8903WAT      O40659   5.428  -0.003   8.361
 8903WAT     H140660   5.377   0.075   8.383
 8903WAT     H240661   5.480  -0.020   8.440
 8904WAT      O40662   1.688   0.855  11.094
 8904WAT     H140663   1.759   0.798  11.124
 8904WAT     H240664   1.731   0.938  11.075
 8905WAT      O40665   2.867   5.026   1.621
 8905WAT     H140666   2.868   5.008   1.527
 8905WAT     H240667   2.774   5.024   1.645
 8906WAT      O40668   0.977   1.606   3.882
 8906WAT     H140669   0.924   1.680   3.911
 8906WAT     H240670   1.060   1.616   3.930
 8907WAT      O40671   1.496   5.399   9.869
 8907WAT     H140672   1.526   5.314   9.835
 8907WAT     H240673   1.422   5.422   9.812
 8908WAT      O40674   1.202   1.477  12.553
 8908WAT     H140675   1.274   1.425  12.516
 8908WAT     H240676   1.124   1.446  12.507
 8909WAT      O40677   6.140   1.579   8.550
 8909WAT     H140678   6.063   1.600   8.497
 8909WAT     H240679   6.130   1.486   8.571
 8910WAT      O40680   2.116   1.447   1.520
 8910WAT     H140681   2.140   1.447   1.613
 8910WAT     H240682   2.075   1.532   1.506
 8911WAT      O40683   2.220   4.287   3.519
 8911WAT     H140684   2.245   4.195   3.508
 8911WAT     H240685   2.129   4.290   3.488
 8912WAT      O40686   6.176   4.871   1.780
 8912WAT     H140687   6.083   4.860   1.799
 8912WAT     H240688   6.220   4.846   1.861
 8913WAT      O40689   3.913   2.252   0.701
 8913WAT     H140690   3.970   2.324   0.675
 8913WAT     H240691   3.906   2.260   0.796
 8914WAT      O40692   3.421   4.035   1.541
 8914WAT     H140693   3.361   4.045   1.467
 8914WAT     H240694   3.470   4.117   1.544
 8915WAT      O40695   5.927   3.206   1.520
 8915WAT     H140696   6.020   3.196   1.498
 8915WAT     H240697   5.882   3.194   1.436
 8916WAT      O40698   1.479   0.036   3.569
 8916WAT     H140699   1.392   0.049   3.531
 8916WAT     H240700   1.488  -0.059   3.578
 8917WAT      O40701   5.013   5.699   7.788
 8917WAT     H140702   5.063   5.710   7.708
 8917WAT     H240703   4.957   5.623   7.772
 8918WAT      O40704   1.479   1.427  12.225
 8918WAT     H140705   1.387   1.403  12.218
 8918WAT     H240706   1.523   1.375  12.156
 8919WAT      O40707   2.759   0.203   8.663
 8919WAT     H140708   2.844   0.226   8.702
 8919WAT     H240709   2.763   0.107   8.654
 8920WAT      O40710   0.116   0.915   3.369
 8920WAT     H140711   0.116   1.010   3.383
 8920WAT     H240712   0.132   0.904   3.276
 8921WAT      O40713   0.986   3.321  11.562
 8921WAT     H140714   0.995   3.372  11.643
 8921WAT     H240715   1.069   3.335  11.516
 8922WAT      O40716   0.647   2.569   1.469
 8922WAT     H140717   0.652   2.484   1.513
 8922WAT     H240718   0.738   2.588   1.445
 8923WAT      O40719   3.964   4.209  12.361
 8923WAT     H140720   4.001   4.164  12.437
 8923WAT     H240721   4.037   4.260  12.327
 8924WAT      O40722   0.050   4.953  10.572
 8924WAT     H140723   0.106   4.962  10.650
 8924WAT     H240724  -0.027   4.907  10.604
 8925WAT      O40725   4.185   3.953   0.526
 8925WAT     H140726   4.193   4.037   0.482
 8925WAT     H240727   4.276   3.926   0.543
 8926WAT      O40728   1.329   0.744   0.489
 8926WAT     H140729   1.276   0.781   0.419
 8926WAT     H240730   1.313   0.650   0.483
 8927WAT      O40731   3.435   5.096   8.571
 8927WAT     H140732   3.499   5.077   8.640
 8927WAT     H240733   3.359   5.042   8.594
 8928WAT      O40734   1.332   2.615  10.615
 8928WAT     H140735   1.348   2.565  10.694
 8928WAT     H240736   1.399   2.683  10.615
 8929WAT      O40737   4.255   2.276   9.955
 8929WAT     H140738   4.312   2.290  10.031
 8929WAT     H240739   4.171   2.250   9.993
 8930WAT      O40740   4.201   4.263   4.127
 8930WAT     H140741   4.183   4.322   4.201
 8930WAT     H240742   4.164   4.179   4.155
 8931WAT      O40743   3.269   1.736   2.896
 8931WAT     H140744   3.259   1.691   2.812
 8931WAT     H240745   3.310   1.819   2.874
 8932WAT      O40746   5.845   2.198   4.181
 8932WAT     H140747   5.770   2.177   4.237
 8932WAT     H240748   5.808   2.204   4.092
 8933WAT      O40749   2.997   5.027   8.459
 8933WAT     H140750   3.042   5.112   8.461
 8933WAT     H240751   3.059   4.969   8.415
 8934WAT      O40752   2.236   1.783  11.595
 8934WAT     H140753   2.303   1.802  11.660
 8934WAT     H240754   2.173   1.728  11.641
 8935WAT      O40755   2.906   5.733   0.705
 8935WAT     H140756   2.833   5.712   0.646
 8935WAT     H240757   2.894   5.825   0.727
 8936WAT      O40758   2.350   4.287   9.682
 8936WAT     H140759   2.322   4.233   9.756
 8936WAT     H240760   2.407   4.229   9.631
 8937WAT      O40761   4.840   5.058   8.966
 8937WAT     H140762   4.930   5.081   8.944
 8937WAT     H240763   4.845   4.966   8.994
 8938WAT      O40764   3.878   5.842  10.485
 8938WAT     H140765   3.949   5.779  10.482
 8938WAT     H240766   3.855   5.848  10.578
 8939WAT      O40767   1.367   2.347   1.159
 8939WAT     H140768   1.408   2.294   1.227
 8939WAT     H240769   1.273   2.331   1.169
 8940WAT      O40770   4.526   1.972  12.139
 8940WAT     H140771   4.568   2.025  12.071
 8940WAT     H240772   4.444   1.942  12.099
 8941WAT      O40773   5.576   5.533   8.792
 8941WAT     H140774   5.609   5.596   8.857
 8941WAT     H240775   5.557   5.454   8.843
 8942WAT      O40776   3.942   5.416   2.352
 8942WAT     H140777   3.966   5.334   2.309
 8942WAT     H240778   4.020   5.471   2.344
 8943WAT      O40779   1.608   5.304  12.392
 8943WAT     H140780   1.626   5.320  12.484
 8943WAT     H240781   1.512   5.309  12.385
 8944WAT      O40782   4.482   2.303   3.071
 8944WAT     H140783   4.472   2.339   3.159
 8944WAT     H240784   4.405   2.334   3.023
 8945WAT      O40785   0.131   6.241  11.067
 8945WAT     H140786   0.195   6.183  11.109
 8945WAT     H240787   0.131   6.214  10.975
 8946WAT      O40788   5.814   4.685   3.217
 8946WAT     H140789   5.763   4.762   3.242
 8946WAT     H240790   5.904   4.708   3.238
 8947WAT      O40791   2.344   1.389   2.557
 8947WAT     H140792   2.381   1.413   2.472
 8947WAT     H240793   2.268   1.335   2.534
 8948WAT      O40794   3.819   1.143   2.468
 8948WAT     H140795   3.857   1.056   2.455
 8948WAT     H240796   3.864   1.198   2.404
 8949WAT      O40797   3.495   0.475  11.618
 8949WAT     H140798   3.538   0.441  11.696
 8949WAT     H240799   3.536   0.560  11.602
 8950WAT      O40800   4.721   1.241   0.891
 8950WAT     H140801   4.791   1.184   0.860
 8950WAT     H240802   4.641   1.192   0.878
 8951WAT      O40803   2.336   6.037   1.129
 8951WAT     H140804   2.344   5.943   1.146
 8951WAT     H240805   2.286   6.043   1.048
 8952WAT      O40806   2.550   4.918  10.068
 8952WAT     H140807   2.560   4.828  10.036
 8952WAT     H240808   2.555   4.972   9.989
 8953WAT      O40809   4.141   2.401   9.057
 8953WAT     H140810   4.101   2.423   8.973
 8953WAT     H240811   4.146   2.305   9.057
 8954WAT      O40812   1.737   1.293  12.061
 8954WAT     H140813   1.692   1.254  12.135
 8954WAT     H240814   1.830   1.285  12.083
 8955WAT      O40815   0.453   4.922   1.908
 8955WAT     H140816   0.506   4.894   1.833
 8955WAT     H240817   0.513   4.918   1.982
 8956WAT      O40818   5.275   5.671  12.299
 8956WAT     H140819   5.231   5.692  12.381
 8956WAT     H240820   5.279   5.754  12.251
 8957WAT      O40821   6.018   4.851   9.451
 8957WAT     H140822   5.948   4.812   9.400
 8957WAT     H240823   6.005   4.818   9.540
 8958WAT      O40824   0.244   2.248   2.991
 8958WAT     H140825   0.167   2.298   2.966
 8958WAT     H240826   0.317   2.307   2.974
 8959WAT      O40827   2.811   5.765  -0.005
 8959WAT     H140828   2.756   5.760   0.074
 8959WAT     H240829   2.881   5.701   0.012
 8960WAT      O40830   6.178   5.439  10.386
 8960WAT     H140831   6.181   5.348  10.415
 8960WAT     H240832   6.100   5.476  10.428
 8961WAT      O40833   0.231   0.733   4.626
 8961WAT     H140834   0.247   0.645   4.659
 8961WAT     H240835   0.157   0.724   4.566
 8962WAT      O40836   0.743   4.382   1.895
 8962WAT     H140837   0.761   4.350   1.806
 8962WAT     H240838   0.790   4.321   1.952
 8963WAT      O40839   2.714   1.892   2.552
 8963WAT     H140840   2.637   1.847   2.517
 8963WAT     H240841   2.695   1.985   2.539
 8964WAT      O40842  -0.010   0.573   3.358
 8964WAT     H140843  -0.045   0.564   3.447
 8964WAT     H240844   0.079   0.606   3.372
 8965WAT      O40845   5.975   3.618  11.012
 8965WAT     H140846   5.920   3.539  11.004
 8965WAT     H240847   5.955   3.669  10.934
 8966WAT      O40848   2.517   1.177   9.260
 8966WAT     H140849   2.450   1.121   9.298
 8966WAT     H240850   2.498   1.178   9.167
 8967WAT      O40851   2.106   2.510   1.568
 8967WAT     H140852   2.155   2.591   1.581
 8967WAT     H240853   2.017   2.540   1.547
 8968WAT      O40854   5.851   3.502   2.604
 8968WAT     H140855   5.855   3.407   2.593
 8968WAT     H240856   5.766   3.518   2.645
 8969WAT      O40857   1.071   0.542   7.869
 8969WAT     H140858   1.043   0.610   7.808
 8969WAT     H240859   1.112   0.591   7.941
 8970WAT      O40860   4.818   3.806   3.350
 8970WAT     H140861   4.764   3.856   3.412
 8970WAT     H240862   4.772   3.815   3.267
 8971WAT      O40863   2.691   2.960   2.429
 8971WAT     H140864   2.674   2.962   2.335
 8971WAT     H240865   2.609   2.928   2.468
 8972WAT      O40866   0.246   4.325  10.763
 8972WAT     H140867   0.288   4.286  10.840
 8972WAT     H240868   0.318   4.352  10.707
 8973WAT      O40869   0.582   2.603  11.333
 8973WAT     H140870   0.510   2.541  11.336
 8973WAT     H240871   0.652   2.557  11.286
 8974WAT      O40872   2.300   1.651  11.837
 8974WAT     H140873   2.276   1.733  11.881
 8974WAT     H240874   2.362   1.609  11.897
 8975WAT      O40875   2.340   5.767  10.201
 8975WAT     H140876   2.355   5.699  10.265
 8975WAT     H240877   2.369   5.729  10.118
 8976WAT      O40878   1.884   0.533   0.874
 8976WAT     H140879   1.962   0.587   0.858
 8976WAT     H240880   1.842   0.573   0.951
 8977WAT      O40881   0.102   1.234   8.640
 8977WAT     H140882   0.086   1.140   8.653
 8977WAT     H240883   0.027   1.264   8.589
 8978WAT      O40884   4.302   5.406  11.975
 8978WAT     H140885   4.258   5.328  11.943
 8978WAT     H240886   4.266   5.478  11.924
 8979WAT      O40887   2.719   4.826   1.919
 8979WAT     H140888   2.684   4.743   1.949
 8979WAT     H240889   2.683   4.838   1.831
 8980WAT      O40890   0.930   3.521   9.686
 8980WAT     H140891   0.946   3.585   9.755
 8980WAT     H240892   0.969   3.440   9.720
 8981WAT      O40893   0.991   5.093   8.911
 8981WAT     H140894   0.907   5.088   8.958
 8981WAT     H240895   1.008   5.186   8.902
 8982WAT      O40896   3.180   2.650  10.491
 8982WAT     H140897   3.226   2.726  10.456
 8982WAT     H240898   3.218   2.575  10.446
 8983WAT      O40899   4.475   3.571   0.507
 8983WAT     H140900   4.443   3.556   0.418
 8983WAT     H240901   4.405   3.537   0.563
 8984WAT      O40902   3.460   1.888   7.935
 8984WAT     H140903   3.476   1.796   7.915
 8984WAT     H240904   3.547   1.928   7.935
 8985WAT      O40905   5.315   0.001   9.407
 8985WAT     H140906   5.393   0.054   9.391
 8985WAT     H240907   5.246   0.046   9.359
 8986WAT      O40908   4.940   0.379  10.453
 8986WAT     H140909   4.868   0.441  10.465
 8986WAT     H240910   4.983   0.407  10.372
 8987WAT      O40911   0.322   1.376   8.283
 8987WAT     H140912   0.247   1.317   8.270
 8987WAT     H240913   0.318   1.437   8.209
 8988WAT      O40914   1.161   0.376   4.004
 8988WAT     H140915   1.226   0.446   4.003
 8988WAT     H240916   1.158   0.347   4.095
 8989WAT      O40917   5.977   1.413   0.077
 8989WAT     H140918   5.899   1.396   0.025
 8989WAT     H240919   5.944   1.431   0.165
 8990WAT      O40920   1.097   3.364   9.167
 8990WAT     H140921   1.146   3.294   9.123
 8990WAT     H240922   1.155   3.440   9.164
 8991WAT      O40923   0.288   3.426   4.425
 8991WAT     H140924   0.237   3.493   4.470
 8991WAT     H240925   0.378   3.439   4.456
 8992WAT      O40926   2.365   2.861   2.278
 8992WAT     H140927   2.337   2.934   2.222
 8992WAT     H240928   2.301   2.861   2.350
 8993WAT      O40929   3.576   1.030   8.342
 8993WAT     H140930   3.523   0.958   8.308
 8993WAT     H240931   3.622   0.992   8.417
 8994WAT      O40932   1.496   4.655  11.491
 8994WAT     H140933   1.448   4.660  11.409
 8994WAT     H240934   1.461   4.727  11.544
 8995WAT      O40935   4.755   1.314   3.298
 8995WAT     H140936   4.784   1.397   3.260
 8995WAT     H240937   4.695   1.339   3.369
 8996WAT      O40938   3.170   1.464   2.054
 8996WAT     H140939   3.086   1.450   2.098
 8996WAT     H240940   3.198   1.551   2.081
 8997WAT      O40941   2.164   3.276   2.580
 8997WAT     H140942   2.226   3.284   2.508
 8997WAT     H240943   2.209   3.313   2.655
 8998WAT      O40944   5.222   1.430   2.888
 8998WAT     H140945   5.149   1.420   2.826
 8998WAT     H240946   5.276   1.352   2.874
 8999WAT      O40947   4.779   1.320   0.077
 8999WAT     H140948   4.874   1.314   0.088
 8999WAT     H240949   4.766   1.346  -0.014
 9000WAT      O40950   5.351   5.839   8.983
 9000WAT     H140951   5.335   5.744   8.977
 9000WAT     H240952   5.442   5.849   8.957
 9001WAT      O40953   5.899   4.812   1.927
 9001WAT     H140954   5.937   4.880   1.981
 9001WAT     H240955   5.898   4.734   1.983
 9002WAT      O40956   3.653   2.387   9.356
 9002WAT     H140957   3.614   2.458   9.305
 9002WAT     H240958   3.618   2.399   9.445
 9003WAT      O40959   0.721   5.452   9.701
 9003WAT     H140960   0.761   5.536   9.679
 9003WAT     H240961   0.650   5.475   9.762
 9004WAT      O40962   1.027   3.945   9.271
 9004WAT     H140963   0.948   3.896   9.294
 9004WAT     H240964   1.026   3.948   9.176
 9005WAT      O40965   4.059   1.612   0.226
 9005WAT     H140966   4.127   1.559   0.267
 9005WAT     H240967   4.062   1.695   0.274
 9006WAT      O40968   5.638   1.488   0.758
 9006WAT     H140969   5.546   1.482   0.783
 9006WAT     H240970   5.637   1.530   0.672
 9007WAT      O40971   4.520   3.894  11.071
 9007WAT     H140972   4.561   3.973  11.107
 9007WAT     H240973   4.548   3.891  10.980
 9008WAT      O40974   2.576   1.174   1.126
 9008WAT     H140975   2.495   1.216   1.154
 9008WAT     H240976   2.645   1.234   1.152
 9009WAT      O40977   1.771   6.155  11.579
 9009WAT     H140978   1.798   6.082  11.523
 9009WAT     H240979   1.814   6.137  11.663
 9010WAT      O40980   2.721   3.212   1.705
 9010WAT     H140981   2.691   3.301   1.687
 9010WAT     H240982   2.641   3.164   1.727
 9011WAT      O40983   5.372   2.549   8.677
 9011WAT     H140984   5.334   2.590   8.755
 9011WAT     H240985   5.371   2.455   8.696
 9012WAT      O40986   2.851   0.029   4.061
 9012WAT     H140987   2.858  -0.005   4.150
 9012WAT     H240988   2.936   0.068   4.044
 9013WAT      O40989   3.641   3.294   1.722
 9013WAT     H140990   3.631   3.373   1.775
 9013WAT     H240991   3.723   3.256   1.751
 9014WAT      O40992   1.792   3.932   9.812
 9014WAT     H140993   1.767   4.009   9.761
 9014WAT     H240994   1.851   3.883   9.755
 9015WAT      O40995   1.836   2.101  10.649
 9015WAT     H140996   1.929   2.120  10.662
 9015WAT     H240997   1.824   2.103  10.554
 9016WAT      O40998   6.084   1.727  11.597
 9016WAT     H140999   6.152   1.667  11.628
 9016WAT     H241000   6.038   1.677  11.530
 9017WAT      O41001   3.155   4.821   7.759
 9017WAT     H141002   3.121   4.781   7.839
 9017WAT     H241003   3.220   4.885   7.788
 9018WAT      O41004   4.747   2.628   1.371
 9018WAT     H141005   4.765   2.714   1.333
 9018WAT     H241006   4.666   2.599   1.328
 9019WAT      O41007   3.992   1.618   1.416
 9019WAT     H141008   3.918   1.587   1.363
 9019WAT     H241009   3.953   1.671   1.484
 9020WAT      O41010   1.928   3.319  11.426
 9020WAT     H141011   1.933   3.408  11.461
 9020WAT     H241012   2.006   3.310  11.372
 9021WAT      O41013   5.657   4.328   8.330
 9021WAT     H141014   5.671   4.344   8.236
 9021WAT     H241015   5.679   4.236   8.342
 9022WAT      O41016   1.154   0.190   0.169
 9022WAT     H141017   1.155   0.167   0.262
 9022WAT     H241018   1.242   0.223   0.152
 9023WAT      O41019   2.004   5.715  11.867
 9023WAT     H141020   2.040   5.666  11.941
 9023WAT     H241021   2.028   5.806  11.884
 9024WAT      O41022   4.297   4.572   2.525
 9024WAT     H141023   4.251   4.571   2.441
 9024WAT     H241024   4.373   4.516   2.511
 9025WAT      O41025   5.497   2.380  12.304
 9025WAT     H141026   5.549   2.335  12.237
 9025WAT     H241027   5.550   2.455  12.329
 9026WAT      O41028   4.645   4.521  11.272
 9026WAT     H141029   4.649   4.617  11.275
 9026WAT     H241030   4.553   4.500  11.287
 9027WAT      O41031   3.214   1.639  12.459
 9027WAT     H141032   3.196   1.551  12.426
 9027WAT     H241033   3.289   1.669  12.407
 9028WAT      O41034   3.506   0.929   9.457
 9028WAT     H141035   3.567   0.997   9.487
 9028WAT     H241036   3.419   0.964   9.478
 9029WAT      O41037   5.990   4.713  10.995
 9029WAT     H141038   5.969   4.697  11.087
 9029WAT     H241039   5.922   4.666  10.946
 9030WAT      O41040   0.208   0.992   8.908
 9030WAT     H141041   0.285   0.977   8.964
 9030WAT     H241042   0.144   1.034   8.966
 9031WAT      O41043   0.619   5.274  11.278
 9031WAT     H141044   0.590   5.186  11.300
 9031WAT     H241045   0.674   5.263  11.200
 9032WAT      O41046   1.069   0.084   8.163
 9032WAT     H141047   1.138   0.020   8.147
 9032WAT     H241048   1.024   0.092   8.078
 9033WAT      O41049   0.068   4.312   8.145
 9033WAT     H141050   0.138   4.249   8.160
 9033WAT     H241051  -0.011   4.258   8.141
 9034WAT      O41052   2.014   2.554  11.626
 9034WAT     H141053   1.942   2.617  11.625
 9034WAT     H241054   2.044   2.553  11.717
 9035WAT      O41055   0.490   3.425   2.020
 9035WAT     H141056   0.426   3.380   1.964
 9035WAT     H241057   0.456   3.412   2.109
 9036WAT      O41058   4.144   1.236   0.553
 9036WAT     H141059   4.210   1.175   0.518
 9036WAT     H241060   4.191   1.285   0.620
 9037WAT      O41061   3.343   3.258  10.404
 9037WAT     H141062   3.341   3.213  10.489
 9037WAT     H241063   3.428   3.302  10.402
 9038WAT      O41064   4.591   5.989   1.669
 9038WAT     H141065   4.572   6.083   1.671
 9038WAT     H241066   4.514   5.947   1.708
 9039WAT      O41067   1.099   4.081  10.740
 9039WAT     H141068   1.008   4.073  10.715
 9039WAT     H241069   1.141   4.129  10.668
 9040WAT      O41070   1.552   5.939   0.224
 9040WAT     H141071   1.611   5.871   0.193
 9040WAT     H241072   1.554   6.005   0.155
 9041WAT      O41073   5.691   0.589  12.156
 9041WAT     H141074   5.720   0.643  12.083
 9041WAT     H241075   5.657   0.651  12.220
 9042WAT      O41076   4.835   1.591   9.288
 9042WAT     H141077   4.852   1.543   9.369
 9042WAT     H241078   4.899   1.661   9.288
 9043WAT      O41079   5.736   0.729  10.791
 9043WAT     H141080   5.674   0.758  10.724
 9043WAT     H241081   5.794   0.668  10.746
 9044WAT      O41082   1.716   5.069   4.064
 9044WAT     H141083   1.654   5.010   4.107
 9044WAT     H241084   1.677   5.086   3.978
 9045WAT      O41085   4.821   5.015   9.923
 9045WAT     H141086   4.855   5.095   9.964
 9045WAT     H241087   4.768   4.974   9.991
 9046WAT      O41088   2.699   3.262   9.709
 9046WAT     H141089   2.765   3.207   9.666
 9046WAT     H241090   2.751   3.327   9.757
 9047WAT      O41091   2.705   1.133  11.430
 9047WAT     H141092   2.660   1.184  11.497
 9047WAT     H241093   2.727   1.196  11.361
 9048WAT      O41094   6.084   3.742   4.453
 9048WAT     H141095   5.990   3.762   4.445
 9048WAT     H241096   6.121   3.818   4.497
 9049WAT      O41097   2.214   0.215   0.413
 9049WAT     H141098   2.226   0.238   0.505
 9049WAT     H241099   2.285   0.155   0.393
 9050WAT      O41100   2.269   1.515   8.646
 9050WAT     H141101   2.252   1.468   8.728
 9050WAT     H241102   2.182   1.545   8.618
 9051WAT      O41103   2.508   1.739  12.320
 9051WAT     H141104   2.492   1.819  12.369
 9051WAT     H241105   2.589   1.756  12.271
 9052WAT      O41106   2.394   4.637   8.560
 9052WAT     H141107   2.347   4.711   8.599
 9052WAT     H241108   2.458   4.612   8.626
 9053WAT      O41109   3.298   0.984   2.405
 9053WAT     H141110   3.249   0.927   2.464
 9053WAT     H241111   3.233   1.045   2.371
 9054WAT      O41112   5.397   4.634  12.142
 9054WAT     H141113   5.492   4.634  12.149
 9054WAT     H241114   5.378   4.700  12.076
 9055WAT      O41115   4.518   5.582  12.435
 9055WAT     H141116   4.491   5.528  12.361
 9055WAT     H241117   4.530   5.669  12.397
 9056WAT      O41118   1.383   5.866  12.322
 9056WAT     H141119   1.390   5.781  12.366
 9056WAT     H241120   1.372   5.844  12.229
 9057WAT      O41121   1.228   2.853  10.807
 9057WAT     H141122   1.312   2.844  10.761
 9057WAT     H241123   1.206   2.946  10.798
 9058WAT      O41124   1.849   2.280   0.643
 9058WAT     H141125   1.924   2.280   0.702
 9058WAT     H241126   1.872   2.341   0.574
 9059WAT      O41127   0.100   3.782   3.082
 9059WAT     H141128   0.138   3.786   3.169
 9059WAT     H241129   0.088   3.874   3.056
 9060WAT      O41130   5.658   4.669   1.866
 9060WAT     H141131   5.707   4.688   1.946
 9060WAT     H241132   5.642   4.755   1.827
 9061WAT      O41133   5.220   1.291   0.371
 9061WAT     H141134   5.159   1.250   0.310
 9061WAT     H241135   5.173   1.368   0.403
 9062WAT      O41136   4.335   1.047  10.861
 9062WAT     H141137   4.301   1.033  10.950
 9062WAT     H241138   4.308   0.969  10.812
 9063WAT      O41139   3.710   0.281   1.890
 9063WAT     H141140   3.790   0.273   1.941
 9063WAT     H241141   3.706   0.374   1.865
 9064WAT      O41142   4.527   4.432   1.647
 9064WAT     H141143   4.452   4.481   1.613
 9064WAT     H241144   4.593   4.499   1.664
 9065WAT      O41145   5.344   5.963  11.591
 9065WAT     H141146   5.362   6.057  11.597
 9065WAT     H241147   5.267   5.958  11.535
 9066WAT      O41148   1.165   2.502  11.247
 9066WAT     H141149   1.095   2.537  11.191
 9066WAT     H241150   1.182   2.572  11.311
 9067WAT      O41151   2.864   0.863   1.257
 9067WAT     H141152   2.941   0.837   1.307
 9067WAT     H241153   2.888   0.848   1.165
 9068WAT      O41154   0.634   1.489   8.693
 9068WAT     H141155   0.711   1.539   8.667
 9068WAT     H241156   0.601   1.451   8.611
 9069WAT      O41157   3.871   2.719   3.736
 9069WAT     H141158   3.939   2.728   3.804
 9069WAT     H241159   3.892   2.636   3.693
 9070WAT      O41160   5.084   5.853   9.676
 9070WAT     H141161   5.103   5.759   9.675
 9070WAT     H241162   5.163   5.894   9.711
 9071WAT      O41163   2.127   4.977   2.868
 9071WAT     H141164   2.053   4.917   2.879
 9071WAT     H241165   2.118   5.011   2.779
 9072WAT      O41166   6.256   1.779  10.109
 9072WAT     H141167   6.247   1.706  10.047
 9072WAT     H241168   6.168   1.789  10.147
 9073WAT      O41169   0.372   2.558   3.754
 9073WAT     H141170   0.325   2.478   3.730
 9073WAT     H241171   0.422   2.534   3.832
 9074WAT      O41172   1.242   2.826  11.094
 9074WAT     H141173   1.154   2.795  11.114
 9074WAT     H241174   1.247   2.822  10.998
 9075WAT      O41175   2.411   0.759  10.711
 9075WAT     H141176   2.330   0.737  10.664
 9075WAT     H241177   2.441   0.676  10.748
 9076WAT      O41178   2.375   4.652   1.938
 9076WAT     H141179   2.358   4.735   1.894
 9076WAT     H241180   2.305   4.644   2.002
 9077WAT      O41181   2.214   1.704   1.073
 9077WAT     H141182   2.192   1.626   1.124
 9077WAT     H241183   2.209   1.776   1.135
 9078WAT      O41184   5.002   1.389   0.923
 9078WAT     H141185   5.080   1.352   0.882
 9078WAT     H241186   4.947   1.416   0.849
 9079WAT      O41187   3.889   2.432   8.553
 9079WAT     H141188   3.859   2.431   8.462
 9079WAT     H241189   3.894   2.340   8.579
 9080WAT      O41190   4.016   2.203   3.606
 9080WAT     H141191   3.946   2.266   3.628
 9080WAT     H241192   4.040   2.165   3.690
 9081WAT      O41193   4.694   1.631  11.183
 9081WAT     H141194   4.666   1.570  11.252
 9081WAT     H241195   4.663   1.716  11.212
 9082WAT      O41196   5.889   5.347   4.924
 9082WAT     H141197   5.794   5.335   4.916
 9082WAT     H241198   5.913   5.400   4.848
 9083WAT      O41199   0.425   1.991   8.853
 9083WAT     H141200   0.452   1.917   8.800
 9083WAT     H241201   0.332   1.979   8.868
 9084WAT      O41202   3.373   2.351   3.772
 9084WAT     H141203   3.432   2.344   3.847
 9084WAT     H241204   3.409   2.290   3.708
 9085WAT      O41205   2.557   5.246   8.119
 9085WAT     H141206   2.589   5.185   8.053
 9085WAT     H241207   2.478   5.284   8.081
 9086WAT      O41208   4.014   2.703   7.533
 9086WAT     H141209   4.098   2.741   7.559
 9086WAT     H241210   3.969   2.774   7.487
 9087WAT      O41211   0.226   5.785   9.126
 9087WAT     H141212   0.278   5.744   9.195
 9087WAT     H241213   0.221   5.719   9.057
 9088WAT      O41214   3.640   5.058   9.072
 9088WAT     H141215   3.592   4.988   9.117
 9088WAT     H241216   3.708   5.085   9.134
 9089WAT      O41217   1.610   2.987   8.589
 9089WAT     H141218   1.542   3.053   8.600
 9089WAT     H241219   1.562   2.906   8.570
 9090WAT      O41220   4.922   5.067   8.159
 9090WAT     H141221   4.976   5.110   8.093
 9090WAT     H241222   4.845   5.037   8.111
 9091WAT      O41223   2.729   4.956  12.124
 9091WAT     H141224   2.652   4.902  12.105
 9091WAT     H241225   2.744   4.944  12.218
 9092WAT      O41226   2.707   5.335   2.620
 9092WAT     H141227   2.765   5.406   2.645
 9092WAT     H241228   2.762   5.275   2.569
 9093WAT      O41229   4.119   0.458   0.077
 9093WAT     H141230   4.079   0.402   0.011
 9093WAT     H241231   4.165   0.397   0.135
 9094WAT      O41232   5.224   2.338   1.474
 9094WAT     H141233   5.271   2.331   1.557
 9094WAT     H241234   5.219   2.433   1.458
 9095WAT      O41235   5.048   1.288  12.099
 9095WAT     H141236   5.066   1.238  12.020
 9095WAT     H241237   4.972   1.342  12.077
 9096WAT      O41238   1.322   4.935   9.509
 9096WAT     H141239   1.315   5.027   9.482
 9096WAT     H241240   1.252   4.925   9.574
 9097WAT      O41241   5.793   5.612   3.625
 9097WAT     H141242   5.734   5.557   3.676
 9097WAT     H241243   5.752   5.617   3.538
 9098WAT      O41244   0.419   3.832  10.457
 9098WAT     H141245   0.397   3.752  10.505
 9098WAT     H241246   0.406   3.809  10.365
 9099WAT      O41247   0.595   5.630  10.963
 9099WAT     H141248   0.575   5.618  11.056
 9099WAT     H241249   0.690   5.639  10.959
 9100WAT      O41250   2.936   5.935  10.868
 9100WAT     H141251   3.001   6.005  10.856
 9100WAT     H241252   2.903   5.948  10.957
 9101WAT      O41253   3.760   5.588  10.196
 9101WAT     H141254   3.767   5.683  10.211
 9101WAT     H241255   3.850   5.560  10.179
 9102WAT      O41256   3.219   1.319   4.147
 9102WAT     H141257   3.213   1.385   4.216
 9102WAT     H241258   3.129   1.289   4.135
 9103WAT      O41259   1.952   1.214  12.209
 9103WAT     H141260   2.027   1.159  12.185
 9103WAT     H241261   1.985   1.268  12.282
 9104WAT      O41262   1.357   0.086   7.580
 9104WAT     H141263   1.264   0.076   7.601
 9104WAT     H241264   1.381   0.172   7.615
 9105WAT      O41265   5.087   2.547   8.825
 9105WAT     H141266   5.085   2.642   8.841
 9105WAT     H241267   5.085   2.507   8.911
 9106WAT      O41268   5.265   0.047   3.141
 9106WAT     H141269   5.241   0.060   3.233
 9106WAT     H241270   5.209   0.108   3.093
 9107WAT      O41271   4.342   1.655  11.347
 9107WAT     H141272   4.438   1.656  11.347
 9107WAT     H241273   4.318   1.738  11.388
 9108WAT      O41274   2.253   5.691   1.970
 9108WAT     H141275   2.302   5.771   1.990
 9108WAT     H241276   2.186   5.686   2.038
 9109WAT      O41277   3.730   5.365  11.537
 9109WAT     H141278   3.649   5.342  11.493
 9109WAT     H241279   3.713   5.452  11.575
 9110WAT      O41280   4.582   4.594  10.203
 9110WAT     H141281   4.551   4.675  10.163
 9110WAT     H241282   4.657   4.622  10.256
 9111WAT      O41283   4.103   2.563   8.805
 9111WAT     H141284   4.010   2.553   8.828
 9111WAT     H241285   4.108   2.648   8.762
 9112WAT      O41286   4.080   4.172   3.455
 9112WAT     H141287   4.082   4.240   3.387
 9112WAT     H241288   3.992   4.135   3.450
 9113WAT      O41289   3.709   5.517   8.434
 9113WAT     H141290   3.696   5.425   8.457
 9113WAT     H241291   3.783   5.517   8.372
 9114WAT      O41292   5.589   5.140   2.825
 9114WAT     H141293   5.501   5.125   2.790
 9114WAT     H241294   5.606   5.065   2.881
 9115WAT      O41295   2.982   2.552   9.639
 9115WAT     H141296   2.961   2.461   9.618
 9115WAT     H241297   2.908   2.582   9.692
 9116WAT      O41298   4.224   4.221   9.312
 9116WAT     H141299   4.234   4.130   9.342
 9116WAT     H241300   4.139   4.222   9.269
 9117WAT      O41301   1.916   3.567  11.531
 9117WAT     H141302   1.959   3.653  11.532
 9117WAT     H241303   1.824   3.585  11.549
 9118WAT      O41304   5.530   3.378   1.338
 9118WAT     H141305   5.542   3.467   1.306
 9118WAT     H241306   5.558   3.381   1.429
 9119WAT      O41307   2.594   0.181  12.532
 9119WAT     H141308   2.572   0.273  12.549
 9119WAT     H241309   2.545   0.159  12.453
 9120WAT      O41310   0.043   4.025  11.524
 9120WAT     H141311   0.053   4.073  11.607
 9120WAT     H241312   0.130   4.030  11.483
 9121WAT      O41313   4.784   4.076   1.751
 9121WAT     H141314   4.775   3.994   1.798
 9121WAT     H241315   4.835   4.054   1.673
 9122WAT      O41316   0.843   2.290  11.886
 9122WAT     H141317   0.863   2.367  11.939
 9122WAT     H241318   0.751   2.271  11.905
 9123WAT      O41319   3.782   5.500   1.405
 9123WAT     H141320   3.877   5.509   1.396
 9123WAT     H241321   3.745   5.573   1.356
 9124WAT      O41322   3.388   0.161  11.865
 9124WAT     H141323   3.335   0.201  11.797
 9124WAT     H241324   3.443   0.098  11.819
 9125WAT      O41325   5.143   1.722   7.145
 9125WAT     H141326   5.182   1.667   7.213
 9125WAT     H241327   5.050   1.724   7.166
 9126WAT      O41328   0.658   5.062   4.622
 9126WAT     H141329   0.673   5.155   4.606
 9126WAT     H241330   0.694   5.019   4.544
 9127WAT      O41331   0.087   0.974  11.139
 9127WAT     H141332   0.054   0.942  11.223
 9127WAT     H241333   0.054   0.911  11.075
 9128WAT      O41334   3.051   0.588   8.311
 9128WAT     H141335   2.988   0.622   8.375
 9128WAT     H241336   3.057   0.655   8.244
 9129WAT      O41337   3.563   4.780   3.718
 9129WAT     H141338   3.474   4.776   3.755
 9129WAT     H241339   3.569   4.869   3.683
 9130WAT      O41340   2.031   2.965   9.552
 9130WAT     H141341   2.061   2.892   9.606
 9130WAT     H241342   2.053   2.940   9.462
 9131WAT      O41343   0.498   1.359  12.314
 9131WAT     H141344   0.531   1.444  12.343
 9131WAT     H241345   0.537   1.347  12.227
 9132WAT      O41346   1.031   2.838   1.123
 9132WAT     H141347   1.053   2.865   1.034
 9132WAT     H241348   1.102   2.779   1.148
 9133WAT      O41349   1.713   5.102   8.552
 9133WAT     H141350   1.689   5.018   8.591
 9133WAT     H241351   1.697   5.090   8.458
 9134WAT      O41352   5.725   0.126   8.992
 9134WAT     H141353   5.752   0.131   9.083
 9134WAT     H241354   5.688   0.212   8.973
 9135WAT      O41355   5.621   2.000  12.131
 9135WAT     H141356   5.640   2.091  12.106
 9135WAT     H241357   5.530   2.002  12.161
 9136WAT      O41358   4.611   5.669   0.068
 9136WAT     H141359   4.680   5.668   0.001
 9136WAT     H241360   4.546   5.731   0.035
 9137WAT      O41361   2.713   4.688   3.453
 9137WAT     H141362   2.798   4.727   3.470
 9137WAT     H241363   2.698   4.702   3.359
 9138WAT      O41364   3.741   0.672  11.547
 9138WAT     H141365   3.766   0.595  11.497
 9138WAT     H241366   3.724   0.739  11.481
 9139WAT      O41367   1.379   6.007   1.015
 9139WAT     H141368   1.417   5.925   0.983
 9139WAT     H241369   1.360   5.990   1.107
 9140WAT      O41370   4.707   0.243   0.803
 9140WAT     H141371   4.716   0.326   0.757
 9140WAT     H241372   4.758   0.253   0.883
 9141WAT      O41373   0.413   1.313   0.618
 9141WAT     H141374   0.438   1.405   0.619
 9141WAT     H241375   0.456   1.275   0.695
 9142WAT      O41376   5.016   3.451   3.144
 9142WAT     H141377   5.003   3.542   3.119
 9142WAT     H241378   5.097   3.425   3.100
 9143WAT      O41379   3.830   2.862  10.142
 9143WAT     H141380   3.881   2.791  10.104
 9143WAT     H241381   3.889   2.937  10.143
 9144WAT      O41382   3.161   4.385   0.445
 9144WAT     H141383   3.085   4.368   0.499
 9144WAT     H241384   3.236   4.361   0.500
 9145WAT      O41385   5.498   1.649   7.675
 9145WAT     H141386   5.462   1.590   7.741
 9145WAT     H241387   5.565   1.598   7.630
 9146WAT      O41388   2.596   3.371   3.136
 9146WAT     H141389   2.542   3.315   3.080
 9146WAT     H241390   2.679   3.378   3.089
 9147WAT      O41391   0.877   2.104   2.993
 9147WAT     H141392   0.971   2.098   3.012
 9147WAT     H241393   0.866   2.189   2.951
 9148WAT      O41394   3.266   4.799   3.179
 9148WAT     H141395   3.270   4.845   3.262
 9148WAT     H241396   3.350   4.753   3.172
 9149WAT      O41397   4.912   0.865  10.243
 9149WAT     H141398   4.905   0.851  10.338
 9149WAT     H241399   4.894   0.780  10.205
 9150WAT      O41400   5.645   3.801   1.626
 9150WAT     H141401   5.566   3.855   1.634
 9150WAT     H241402   5.717   3.863   1.635
 9151WAT      O41403   5.394   3.480  10.877
 9151WAT     H141404   5.431   3.565  10.855
 9151WAT     H241405   5.318   3.471  10.820
 9152WAT      O41406   3.713   4.986  10.162
 9152WAT     H141407   3.693   5.014  10.252
 9152WAT     H241408   3.731   5.068  10.115
 9153WAT      O41409   2.835   2.771   2.722
 9153WAT     H141410   2.873   2.846   2.767
 9153WAT     H241411   2.850   2.789   2.629
 9154WAT      O41412   2.683   5.862   9.100
 9154WAT     H141413   2.591   5.845   9.081
 9154WAT     H241414   2.731   5.797   9.049
 9155WAT      O41415   0.919   1.843   7.591
 9155WAT     H141416   0.891   1.854   7.501
 9155WAT     H241417   0.838   1.824   7.639
 9156WAT      O41418   1.701   4.075  12.405
 9156WAT     H141419   1.662   4.160  12.385
 9156WAT     H241420   1.694   4.026  12.323
 9157WAT      O41421   4.853   4.619  11.489
 9157WAT     H141422   4.853   4.547  11.552
 9157WAT     H241423   4.772   4.666  11.506
 9158WAT      O41424   3.379   4.493   3.745
 9158WAT     H141425   3.289   4.458   3.745
 9158WAT     H241426   3.368   4.586   3.767
 9159WAT      O41427   3.249   3.196  12.383
 9159WAT     H141428   3.215   3.173  12.469
 9159WAT     H241429   3.342   3.215  12.398
 9160WAT      O41430   5.286   1.622   0.218
 9160WAT     H141431   5.352   1.594   0.155
 9160WAT     H241432   5.310   1.712   0.239
 9161WAT      O41433   2.470   0.599   8.350
 9161WAT     H141434   2.541   0.570   8.291
 9161WAT     H241435   2.391   0.558   8.314
 9162WAT      O41436   5.180   2.423   9.263
 9162WAT     H141437   5.208   2.503   9.219
 9162WAT     H241438   5.089   2.440   9.287
 9163WAT      O41439   2.692   4.998   2.149
 9163WAT     H141440   2.667   5.087   2.126
 9163WAT     H241441   2.693   4.951   2.066
 9164WAT      O41442   3.082   0.535   0.400
 9164WAT     H141443   3.040   0.585   0.468
 9164WAT     H241444   3.027   0.547   0.322
 9165WAT      O41445   4.848   3.611   4.021
 9165WAT     H141446   4.835   3.591   4.114
 9165WAT     H241447   4.818   3.701   4.011
 9166WAT      O41448   0.898   2.088   4.257
 9166WAT     H141449   0.978   2.051   4.218
 9166WAT     H241450   0.892   2.047   4.343
 9167WAT      O41451   1.005   2.233  12.437
 9167WAT     H141452   1.085   2.244  12.489
 9167WAT     H241453   1.005   2.308  12.376
 9168WAT      O41454   3.364   1.236  11.187
 9168WAT     H141455   3.432   1.240  11.119
 9168WAT     H241456   3.303   1.306  11.163
 9169WAT      O41457   6.032   4.425   2.166
 9169WAT     H141458   6.017   4.345   2.115
 9169WAT     H241459   6.080   4.483   2.106
 9170WAT      O41460   2.873   3.053   9.759
 9170WAT     H141461   2.843   3.012   9.840
 9170WAT     H241462   2.965   3.075   9.775
 9171WAT      O41463   0.710   3.091  10.727
 9171WAT     H141464   0.720   3.090  10.632
 9171WAT     H241465   0.762   3.017  10.758
 9172WAT      O41466   2.024   5.420  10.055
 9172WAT     H141467   2.008   5.509  10.087
 9172WAT     H241468   2.118   5.419  10.034
 9173WAT      O41469   6.096   4.835   9.969
 9173WAT     H141470   6.173   4.886   9.993
 9173WAT     H241471   6.050   4.819  10.051
 9174WAT      O41472   0.330   2.818   1.408
 9174WAT     H141473   0.280   2.741   1.380
 9174WAT     H241474   0.391   2.834   1.336
 9175WAT      O41475   5.916   2.345   3.059
 9175WAT     H141476   5.829   2.353   3.019
 9175WAT     H241477   5.949   2.435   3.064
 9176WAT      O41478   2.831   3.703  11.730
 9176WAT     H141479   2.828   3.609  11.746
 9176WAT     H241480   2.755   3.738  11.778
 9177WAT      O41481   1.001   0.142   2.096
 9177WAT     H141482   0.907   0.161   2.096
 9177WAT     H241483   1.023   0.130   2.004
 9178WAT      O41484   3.319   0.984   2.066
 9178WAT     H141485   3.307   0.894   2.094
 9178WAT     H241486   3.328   1.033   2.148
 9179WAT      O41487   1.213   6.073   9.015
 9179WAT     H141488   1.299   6.041   9.041
 9179WAT     H241489   1.176   6.110   9.095
 9180WAT      O41490   1.778   1.995   7.609
 9180WAT     H141491   1.696   1.951   7.632
 9180WAT     H241492   1.790   1.975   7.516
 9181WAT      O41493   4.686   2.363   0.696
 9181WAT     H141494   4.600   2.324   0.682
 9181WAT     H241495   4.670   2.457   0.696
 9182WAT      O41496   4.931   0.827  10.519
 9182WAT     H141497   5.016   0.794  10.548
 9182WAT     H241498   4.867   0.783  10.576
 9183WAT      O41499   3.691   4.803   8.232
 9183WAT     H141500   3.704   4.764   8.319
 9183WAT     H241501   3.686   4.897   8.249
 9184WAT      O41502   2.249   0.296   8.725
 9184WAT     H141503   2.254   0.315   8.819
 9184WAT     H241504   2.155   0.280   8.710
 9185WAT      O41505   5.827   0.689  11.181
 9185WAT     H141506   5.877   0.658  11.257
 9185WAT     H241507   5.785   0.770  11.212
 9186WAT      O41508   4.249   3.444   1.873
 9186WAT     H141509   4.178   3.391   1.835
 9186WAT     H241510   4.278   3.393   1.949
 9187WAT      O41511   5.655   0.578  10.993
 9187WAT     H141512   5.698   0.627  10.923
 9187WAT     H241513   5.706   0.599  11.072
 9188WAT      O41514   4.848   2.761   0.620
 9188WAT     H141515   4.905   2.693   0.583
 9188WAT     H241516   4.852   2.748   0.714
 9189WAT      O41517   5.814   2.366   1.838
 9189WAT     H141518   5.725   2.346   1.868
 9189WAT     H241519   5.870   2.340   1.911
 9190WAT      O41520   2.909   0.789  11.480
 9190WAT     H141521   2.925   0.698  11.454
 9190WAT     H241522   2.995   0.830  11.477
 9191WAT      O41523   0.891   0.383  10.695
 9191WAT     H141524   0.927   0.300  10.665
 9191WAT     H241525   0.880   0.371  10.790
 9192WAT      O41526   1.646   3.288   4.221
 9192WAT     H141527   1.692   3.369   4.201
 9192WAT     H241528   1.592   3.309   4.297
 9193WAT      O41529   0.353   6.126  11.435
 9193WAT     H141530   0.411   6.157  11.505
 9193WAT     H241531   0.326   6.206  11.390
 9194WAT      O41532   0.777   5.101   4.093
 9194WAT     H141533   0.783   5.091   4.188
 9194WAT     H241534   0.756   5.014   4.060
 9195WAT      O41535   5.991   0.290   0.932
 9195WAT     H141536   5.904   0.276   0.969
 9195WAT     H241537   5.981   0.270   0.839
 9196WAT      O41538   0.892   3.494   1.245
 9196WAT     H141539   0.854   3.415   1.285
 9196WAT     H241540   0.970   3.512   1.298
 9197WAT      O41541   0.958   0.388   1.011
 9197WAT     H141542   0.970   0.297   0.984
 9197WAT     H241543   0.951   0.385   1.106
 9198WAT      O41544   1.190   2.417  10.970
 9198WAT     H141545   1.208   2.438  11.061
 9198WAT     H241546   1.171   2.324  10.970
 9199WAT      O41547   4.256   0.309   9.992
 9199WAT     H141548   4.240   0.231  10.046
 9199WAT     H241549   4.196   0.375  10.026
 9200WAT      O41550   4.242   3.618   3.342
 9200WAT     H141551   4.322   3.566   3.336
 9200WAT     H241552   4.261   3.683   3.410
 9201WAT      O41553   2.944   1.143  11.565
 9201WAT     H141554   2.870   1.120  11.510
 9201WAT     H241555   2.911   1.135  11.655
 9202WAT      O41556   0.944   3.722   1.846
 9202WAT     H141557   0.876   3.664   1.879
 9202WAT     H241558   0.984   3.675   1.773
 9203WAT      O41559   0.372   3.872  12.644
 9203WAT     H141560   0.293   3.827  12.615
 9203WAT     H241561   0.427   3.803  12.681
 9204WAT      O41562   0.028   4.101  10.858
 9204WAT     H141563   0.028   4.073  10.949
 9204WAT     H241564   0.084   4.179  10.856
 9205WAT      O41565   0.788   2.477  12.159
 9205WAT     H141566   0.857   2.536  12.188
 9205WAT     H241567   0.719   2.486  12.224
 9206WAT      O41568   3.497   1.385  11.667
 9206WAT     H141569   3.532   1.472  11.650
 9206WAT     H241570   3.481   1.347  11.581
 9207WAT      O41571   0.167   3.127   9.053
 9207WAT     H141572   0.094   3.171   9.009
 9207WAT     H241573   0.244   3.177   9.025
 9208WAT      O41574   1.509   2.003  10.188
 9208WAT     H141575   1.604   2.000  10.173
 9208WAT     H241576   1.501   2.028  10.280
 9209WAT      O41577   3.168   3.372   2.427
 9209WAT     H141578   3.115   3.313   2.374
 9209WAT     H241579   3.119   3.454   2.427
 9210WAT      O41580   1.982   0.219   1.894
 9210WAT     H141581   1.960   0.232   1.802
 9210WAT     H241582   1.965   0.304   1.935
 9211WAT      O41583   5.706   3.797   2.309
 9211WAT     H141584   5.757   3.743   2.248
 9211WAT     H241585   5.746   3.780   2.394
 9212WAT      O41586   1.472   1.440   1.609
 9212WAT     H141587   1.415   1.406   1.540
 9212WAT     H241588   1.520   1.364   1.640
 9213WAT      O41589   2.182   0.913   9.621
 9213WAT     H141590   2.095   0.878   9.637
 9213WAT     H241591   2.185   0.930   9.527
 9214WAT      O41592   5.076   1.439   8.553
 9214WAT     H141593   5.024   1.515   8.525
 9214WAT     H241594   5.011   1.376   8.584
 9215WAT      O41595   1.043   1.633  11.985
 9215WAT     H141596   0.971   1.691  11.960
 9215WAT     H241597   1.118   1.691  11.997
 9216WAT      O41598   5.079   1.818  11.583
 9216WAT     H141599   5.150   1.846  11.641
 9216WAT     H241600   5.120   1.755  11.524
 9217WAT      O41601   1.331   1.700  12.460
 9217WAT     H141602   1.261   1.765  12.465
 9217WAT     H241603   1.292   1.620  12.494
 9218WAT      O41604   6.028   4.715   9.717
 9218WAT     H141605   6.039   4.781   9.785
 9218WAT     H241606   6.103   4.656   9.728
 9219WAT      O41607   3.722   5.970   0.541
 9219WAT     H141608   3.728   5.880   0.510
 9219WAT     H241609   3.796   6.014   0.499
 9220WAT      O41610   4.815   3.427   2.813
 9220WAT     H141611   4.868   3.504   2.831
 9220WAT     H241612   4.876   3.354   2.817
 9221WAT      O41613   6.092   2.203   8.363
 9221WAT     H141614   6.119   2.151   8.287
 9221WAT     H241615   6.124   2.292   8.344
 9222WAT      O41616   1.167   1.725   7.711
 9222WAT     H141617   1.090   1.775   7.685
 9222WAT     H241618   1.165   1.725   7.806
 9223WAT      O41619   2.662   5.547  10.002
 9223WAT     H141620   2.752   5.568  10.025
 9223WAT     H241621   2.669   5.478   9.937
 9224WAT      O41622   1.853   1.627   3.275
 9224WAT     H141623   1.827   1.716   3.252
 9224WAT     H241624   1.935   1.637   3.322
 9225WAT      O41625   2.977   4.126  10.227
 9225WAT     H141626   3.018   4.184  10.292
 9225WAT     H241627   3.018   4.040  10.243
 9226WAT      O41628   3.367   2.038  12.224
 9226WAT     H141629   3.415   2.117  12.248
 9226WAT     H241630   3.356   2.044  12.129
 9227WAT      O41631   4.013   0.305   2.801
 9227WAT     H141632   3.930   0.340   2.771
 9227WAT     H241633   4.007   0.211   2.785
 9228WAT      O41634   3.366   1.743   1.179
 9228WAT     H141635   3.324   1.825   1.153
 9228WAT     H241636   3.367   1.691   1.099
 9229WAT      O41637   2.815   1.980  10.805
 9229WAT     H141638   2.880   1.931  10.855
 9229WAT     H241639   2.762   2.025  10.871
 9230WAT      O41640   3.821   5.755   2.732
 9230WAT     H141641   3.883   5.684   2.718
 9230WAT     H241642   3.870   5.834   2.709
 9231WAT      O41643   2.055   0.706   2.009
 9231WAT     H141644   2.141   0.745   2.020
 9231WAT     H241645   2.005   0.771   1.960
 9232WAT      O41646   2.637   5.595   4.104
 9232WAT     H141647   2.703   5.663   4.114
 9232WAT     H241648   2.593   5.592   4.189
 9233WAT      O41649   3.325   2.934   0.040
 9233WAT     H141650   3.237   2.912   0.069
 9233WAT     H241651   3.322   3.028   0.020
 9234WAT      O41652   2.797   4.379   2.638
 9234WAT     H141653   2.763   4.312   2.578
 9234WAT     H241654   2.821   4.452   2.581
 9235WAT      O41655   2.013   2.639  11.091
 9235WAT     H141656   2.042   2.557  11.131
 9235WAT     H241657   1.932   2.661  11.137
 9236WAT      O41658   1.749   5.891   9.826
 9236WAT     H141659   1.737   5.796   9.833
 9236WAT     H241660   1.713   5.913   9.740
 9237WAT      O41661   6.220   1.828   2.698
 9237WAT     H141662   6.202   1.922   2.703
 9237WAT     H241663   6.296   1.815   2.755
 9238WAT      O41664   5.882   4.582   0.430
 9238WAT     H141665   5.850   4.568   0.519
 9238WAT     H241666   5.976   4.568   0.435
 9239WAT      O41667   6.141   1.462  10.812
 9239WAT     H141668   6.147   1.509  10.729
 9239WAT     H241669   6.231   1.464  10.846
 9240WAT      O41670   4.623   0.587   0.654
 9240WAT     H141671   4.672   0.628   0.725
 9240WAT     H241672   4.688   0.575   0.584
 9241WAT      O41673   3.484   4.113   8.803
 9241WAT     H141674   3.398   4.072   8.789
 9241WAT     H241675   3.537   4.083   8.730
 9242WAT      O41676   5.089   2.605  11.526
 9242WAT     H141677   5.126   2.691  11.506
 9242WAT     H241678   4.996   2.613  11.504
 9243WAT      O41679   4.620   0.946  11.189
 9243WAT     H141680   4.621   1.038  11.162
 9243WAT     H241681   4.529   0.919  11.178
 9244WAT      O41682   2.289   2.200   8.791
 9244WAT     H141683   2.335   2.119   8.771
 9244WAT     H241684   2.250   2.185   8.877
 9245WAT      O41685   1.906   1.773   0.536
 9245WAT     H141686   1.867   1.860   0.523
 9245WAT     H241687   1.847   1.712   0.493
 9246WAT      O41688   4.853   5.473   7.770
 9246WAT     H141689   4.830   5.460   7.862
 9246WAT     H241690   4.844   5.386   7.731
 9247WAT      O41691   0.120   3.221   9.442
 9247WAT     H141692   0.154   3.236   9.530
 9247WAT     H241693   0.144   3.131   9.422
 9248WAT      O41694   2.816   3.342   2.036
 9248WAT     H141695   2.780   3.342   1.948
 9248WAT     H241696   2.743   3.314   2.092
 9249WAT      O41697   3.516   4.008   2.183
 9249WAT     H141698   3.438   4.062   2.172
 9249WAT     H241699   3.559   4.045   2.261
 9250WAT      O41700   5.699   5.404   9.260
 9250WAT     H141701   5.668   5.401   9.170
 9250WAT     H241702   5.792   5.382   9.254
 9251WAT      O41703   6.198   2.859   0.514
 9251WAT     H141704   6.292   2.842   0.503
 9251WAT     H241705   6.158   2.822   0.435
 9252WAT      O41706   0.783   1.500   3.632
 9252WAT     H141707   0.803   1.508   3.725
 9252WAT     H241708   0.819   1.580   3.593
 9253WAT      O41709   0.236   1.830  12.652
 9253WAT     H141710   0.313   1.774  12.662
 9253WAT     H241711   0.218   1.829  12.558
 9254WAT      O41712   4.377   4.816  11.119
 9254WAT     H141713   4.459   4.775  11.149
 9254WAT     H241714   4.374   4.900  11.164
 9255WAT      O41715   6.047   2.368   2.284
 9255WAT     H141716   6.042   2.273   2.298
 9255WAT     H241717   5.966   2.402   2.323
 9256WAT      O41718   4.625   4.501  12.075
 9256WAT     H141719   4.589   4.582  12.041
 9256WAT     H241720   4.689   4.528  12.140
 9257WAT      O41721   2.376   2.634   0.743
 9257WAT     H141722   2.326   2.695   0.690
 9257WAT     H241723   2.311   2.580   0.787
 9258WAT      O41724   4.629   3.843   0.231
 9258WAT     H141725   4.626   3.849   0.327
 9258WAT     H241726   4.539   3.819   0.206
 9259WAT      O41727   5.329   0.498   1.714
 9259WAT     H141728   5.335   0.405   1.694
 9259WAT     H241729   5.256   0.504   1.776
 9260WAT      O41730   0.835   1.555  10.775
 9260WAT     H141731   0.767   1.517  10.831
 9260WAT     H241732   0.788   1.606  10.710
 9261WAT      O41733   4.923   2.180  12.641
 9261WAT     H141734   4.898   2.168  12.550
 9261WAT     H241735   4.899   2.271  12.661
 9262WAT      O41736   2.193   0.638   8.822
 9262WAT     H141737   2.219   0.644   8.731
 9262WAT     H241738   2.210   0.548   8.847
 9263WAT      O41739   3.075   1.046   3.005
 9263WAT     H141740   3.074   1.137   2.975
 9263WAT     H241741   3.129   1.001   2.941
 9264WAT      O41742   0.384   5.376  12.320
 9264WAT     H141743   0.379   5.311  12.249
 9264WAT     H241744   0.366   5.459  12.277
 9265WAT      O41745   5.372   3.831   2.808
 9265WAT     H141746   5.450   3.881   2.786
 9265WAT     H241747   5.334   3.807   2.723
 9266WAT      O41748   1.232   4.337   2.085
 9266WAT     H141749   1.297   4.284   2.039
 9266WAT     H241750   1.233   4.304   2.175
 9267WAT      O41751   1.616   0.784  10.276
 9267WAT     H141752   1.670   0.839  10.219
 9267WAT     H241753   1.540   0.839  10.296
 9268WAT      O41754   0.924   5.453   3.773
 9268WAT     H141755   0.917   5.410   3.857
 9268WAT     H241756   0.899   5.544   3.790
 9269WAT      O41757   3.378   5.786   2.493
 9269WAT     H141758   3.374   5.729   2.570
 9269WAT     H241759   3.351   5.731   2.420
 9270WAT      O41760   5.961   3.152   0.635
 9270WAT     H141761   5.997   3.229   0.592
 9270WAT     H241762   5.947   3.089   0.564
 9271WAT      O41763   0.099   5.853  11.114
 9271WAT     H141764   0.167   5.917  11.095
 9271WAT     H241765   0.086   5.859  11.208
 9272WAT      O41766   0.810   5.722  10.787
 9272WAT     H141767   0.860   5.706  10.867
 9272WAT     H241768   0.822   5.643  10.735
 9273WAT      O41769   3.033   5.143   1.802
 9273WAT     H141770   2.988   5.172   1.882
 9273WAT     H241771   2.963   5.111   1.745
 9274WAT      O41772   5.206   4.687   9.964
 9274WAT     H141773   5.194   4.780   9.949
 9274WAT     H241774   5.152   4.644   9.898
 9275WAT      O41775   3.887   1.497   0.634
 9275WAT     H141776   3.891   1.411   0.677
 9275WAT     H241777   3.819   1.487   0.568
 9276WAT      O41778   2.253   3.662   4.458
 9276WAT     H141779   2.238   3.751   4.488
 9276WAT     H241780   2.348   3.649   4.468
 9277WAT      O41781   0.335   3.272   7.713
 9277WAT     H141782   0.331   3.366   7.695
 9277WAT     H241783   0.287   3.232   7.640
 9278WAT      O41784   1.471   3.855   3.449
 9278WAT     H141785   1.489   3.773   3.403
 9278WAT     H241786   1.396   3.892   3.404
 9279WAT      O41787   0.142   3.826   3.555
 9279WAT     H141788   0.178   3.785   3.477
 9279WAT     H241789   0.147   3.920   3.537
 9280WAT      O41790   3.653   3.438   8.307
 9280WAT     H141791   3.606   3.379   8.248
 9280WAT     H241792   3.636   3.525   8.273
 9281WAT      O41793   4.260   1.998   4.168
 9281WAT     H141794   4.209   1.918   4.182
 9281WAT     H241795   4.234   2.056   4.240
 9282WAT      O41796   2.241   3.841   2.759
 9282WAT     H141797   2.194   3.895   2.695
 9282WAT     H241798   2.265   3.901   2.829
 9283WAT      O41799   1.565   0.406   2.362
 9283WAT     H141800   1.635   0.440   2.306
 9283WAT     H241801   1.529   0.484   2.404
 9284WAT      O41802   2.009   5.537   3.689
 9284WAT     H141803   2.034   5.610   3.632
 9284WAT     H241804   2.077   5.472   3.675
 9285WAT      O41805   3.041   2.312   9.923
 9285WAT     H141806   2.976   2.378   9.898
 9285WAT     H241807   3.087   2.351   9.997
 9286WAT      O41808   0.533   0.651   0.929
 9286WAT     H141809   0.473   0.582   0.900
 9286WAT     H241810   0.618   0.624   0.895
 9287WAT      O41811   5.059   4.334  10.775
 9287WAT     H141812   5.093   4.424  10.767
 9287WAT     H241813   5.101   4.287  10.703
 9288WAT      O41814   0.693   3.240  10.979
 9288WAT     H141815   0.693   3.175  10.909
 9288WAT     H241816   0.775   3.288  10.968
 9289WAT      O41817   3.635   6.106   3.990
 9289WAT     H141818   3.668   6.028   4.034
 9289WAT     H241819   3.563   6.136   4.045
 9290WAT      O41820   5.032   3.539  10.899
 9290WAT     H141821   5.057   3.498  10.816
 9290WAT     H241822   5.054   3.475  10.965
 9291WAT      O41823   4.667   1.470  11.439
 9291WAT     H141824   4.660   1.468  11.534
 9291WAT     H241825   4.757   1.443  11.420
 9292WAT      O41826   3.876   4.760   2.992
 9292WAT     H141827   3.968   4.785   2.988
 9292WAT     H241828   3.828   4.843   2.984
 9293WAT      O41829   1.380   3.790   8.097
 9293WAT     H141830   1.439   3.809   8.025
 9293WAT     H241831   1.330   3.713   8.068
 9294WAT      O41832   4.919   3.922  11.959
 9294WAT     H141833   4.919   3.828  11.978
 9294WAT     H241834   4.915   3.928  11.864
 9295WAT      O41835   0.903   4.644   4.023
 9295WAT     H141836   0.879   4.571   4.079
 9295WAT     H241837   0.967   4.608   3.962
 9296WAT      O41838   3.271   0.437  10.521
 9296WAT     H141839   3.237   0.368  10.463
 9296WAT     H241840   3.295   0.391  10.601
 9297WAT      O41841   3.995   2.185  10.030
 9297WAT     H141842   3.958   2.192  10.119
 9297WAT     H241843   3.998   2.090  10.013
 9298WAT      O41844   0.858   2.844   1.533
 9298WAT     H141845   0.877   2.774   1.470
 9298WAT     H241846   0.882   2.806   1.618
 9299WAT      O41847   6.046   2.318   2.014
 9299WAT     H141848   6.057   2.342   2.106
 9299WAT     H241849   6.126   2.349   1.971
 9300WAT      O41850   5.353   2.689   9.920
 9300WAT     H141851   5.262   2.659   9.922
 9300WAT     H241852   5.401   2.617   9.880
 9301WAT      O41853   2.425   3.839   9.718
 9301WAT     H141854   2.354   3.900   9.698
 9301WAT     H241855   2.450   3.803   9.633
 9302WAT      O41856   5.810   2.495  11.976
 9302WAT     H141857   5.905   2.483  11.970
 9302WAT     H241858   5.793   2.571  11.920
 9303WAT      O41859   4.841   5.500   8.867
 9303WAT     H141860   4.867   5.573   8.811
 9303WAT     H241861   4.838   5.425   8.808
 9304WAT      O41862   0.763   1.539   2.976
 9304WAT     H141863   0.701   1.499   3.037
 9304WAT     H241864   0.816   1.598   3.029
 9305WAT      O41865   1.366   4.925  10.732
 9305WAT     H141866   1.392   4.842  10.773
 9305WAT     H241867   1.445   4.956  10.688
 9306WAT      O41868   4.660   4.245  10.230
 9306WAT     H141869   4.582   4.207  10.190
 9306WAT     H241870   4.627   4.302  10.300
 9307WAT      O41871   0.930   0.038  12.092
 9307WAT     H141872   1.012   0.048  12.141
 9307WAT     H241873   0.956  -0.002  12.009
 9308WAT      O41874   0.072   2.743  12.441
 9308WAT     H141875   0.006   2.780  12.499
 9308WAT     H241876   0.126   2.689  12.498
 9309WAT      O41877   1.983   0.311   3.358
 9309WAT     H141878   1.916   0.261   3.404
 9309WAT     H241879   1.992   0.391   3.410
 9310WAT      O41880   0.705   0.670   9.259
 9310WAT     H141881   0.623   0.685   9.307
 9310WAT     H241882   0.771   0.657   9.328
 9311WAT      O41883   3.256   0.307   1.480
 9311WAT     H141884   3.297   0.364   1.545
 9311WAT     H241885   3.227   0.231   1.530
 9312WAT      O41886   4.783   3.451   8.848
 9312WAT     H141887   4.802   3.540   8.878
 9312WAT     H241888   4.869   3.408   8.847
 9313WAT      O41889   5.888   1.790   3.636
 9313WAT     H141890   5.931   1.784   3.550
 9313WAT     H241891   5.904   1.705   3.677
 9314WAT      O41892   2.199   1.621  12.671
 9314WAT     H141893   2.277   1.645  12.722
 9314WAT     H241894   2.229   1.621  12.580
 9315WAT      O41895   1.841   0.381  10.124
 9315WAT     H141896   1.761   0.421  10.089
 9315WAT     H241897   1.890   0.354  10.046
 9316WAT      O41898   1.911   5.957   7.889
 9316WAT     H141899   1.896   5.942   7.796
 9316WAT     H241900   2.002   5.986   7.895
 9317WAT      O41901   5.128   1.951   3.571
 9317WAT     H141902   5.171   1.873   3.606
 9317WAT     H241903   5.150   1.951   3.478
 9318WAT      O41904   2.569   5.446   9.334
 9318WAT     H141905   2.629   5.371   9.343
 9318WAT     H241906   2.627   5.522   9.326
 9319WAT      O41907   5.467   4.506   2.976
 9319WAT     H141908   5.428   4.436   2.924
 9319WAT     H241909   5.541   4.465   3.021
 9320WAT      O41910   5.529   4.189   9.177
 9320WAT     H141911   5.593   4.235   9.123
 9320WAT     H241912   5.457   4.169   9.117
 9321WAT      O41913   1.161   1.217   3.640
 9321WAT     H141914   1.159   1.234   3.546
 9321WAT     H241915   1.073   1.185   3.661
 9322WAT      O41916   1.824   5.324   1.435
 9322WAT     H141917   1.871   5.292   1.512
 9322WAT     H241918   1.735   5.290   1.445
 9323WAT      O41919   1.183   5.252   0.555
 9323WAT     H141920   1.118   5.190   0.521
 9323WAT     H241921   1.249   5.196   0.596
 9324WAT      O41922   4.551   3.417   9.223
 9324WAT     H141923   4.550   3.508   9.254
 9324WAT     H241924   4.497   3.418   9.144
 9325WAT      O41925   2.269   3.001   3.275
 9325WAT     H141926   2.266   2.915   3.317
 9325WAT     H241927   2.360   3.029   3.285
 9326WAT      O41928   6.063   3.632   2.157
 9326WAT     H141929   6.053   3.584   2.240
 9326WAT     H241930   5.982   3.614   2.109
 9327WAT      O41931   2.642   1.652   8.820
 9327WAT     H141932   2.725   1.697   8.836
 9327WAT     H241933   2.588   1.674   8.895
 9328WAT      O41934   4.786   1.453  10.601
 9328WAT     H141935   4.826   1.430  10.685
 9328WAT     H241936   4.856   1.499  10.554
 9329WAT      O41937   4.309   2.166  11.197
 9329WAT     H141938   4.246   2.099  11.171
 9329WAT     H241939   4.355   2.128  11.272
 9330WAT      O41940   2.191   1.350   3.219
 9330WAT     H141941   2.168   1.442   3.204
 9330WAT     H241942   2.277   1.353   3.260
 9331WAT      O41943   3.370   3.484   1.284
 9331WAT     H141944   3.297   3.439   1.241
 9331WAT     H241945   3.439   3.418   1.290
 9332WAT      O41946   3.685   1.122   2.772
 9332WAT     H141947   3.779   1.124   2.754
 9332WAT     H241948   3.647   1.077   2.696
 9333WAT      O41949   4.242   4.435  11.029
 9333WAT     H141950   4.263   4.414  11.119
 9333WAT     H241951   4.285   4.367  10.977
 9334WAT      O41952   3.531   0.622  12.104
 9334WAT     H141953   3.500   0.710  12.124
 9334WAT     H241954   3.451   0.569  12.103
 9335WAT      O41955   5.654   0.869   9.981
 9335WAT     H141956   5.698   0.824  10.054
 9335WAT     H241957   5.605   0.940  10.023
 9336WAT      O41958   2.985   4.836  11.638
 9336WAT     H141959   2.929   4.845  11.715
 9336WAT     H241960   2.952   4.902  11.577
 9337WAT      O41961   3.254   2.660   9.630
 9337WAT     H141962   3.276   2.665   9.723
 9337WAT     H241963   3.162   2.633   9.629
 9338WAT      O41964   0.057   5.834   3.478
 9338WAT     H141965   0.084   5.743   3.490
 9338WAT     H241966  -0.031   5.828   3.439
 9339WAT      O41967   0.989   2.173   1.078
 9339WAT     H141968   1.076   2.131   1.081
 9339WAT     H241969   0.929   2.104   1.105
 9340WAT      O41970   4.489   2.392  10.698
 9340WAT     H141971   4.399   2.423  10.689
 9340WAT     H241972   4.484   2.327  10.769
 9341WAT      O41973   3.073   2.166  12.213
 9341WAT     H141974   3.152   2.184  12.163
 9341WAT     H241975   3.091   2.082  12.256
 9342WAT      O41976   5.646   1.826   0.325
 9342WAT     H141977   5.619   1.735   0.313
 9342WAT     H241978   5.688   1.827   0.411
 9343WAT      O41979   0.916   4.499   8.853
 9343WAT     H141980   0.976   4.568   8.882
 9343WAT     H241981   0.974   4.427   8.827
 9344WAT      O41982   2.641   0.565   8.122
 9344WAT     H141983   2.616   0.616   8.044
 9344WAT     H241984   2.633   0.474   8.095
 9345WAT      O41985   3.037   5.345   0.377
 9345WAT     H141986   3.037   5.416   0.441
 9345WAT     H241987   3.127   5.312   0.377
 9346WAT      O41988   4.065   3.078  12.597
 9346WAT     H141989   4.025   3.007  12.647
 9346WAT     H241990   4.137   3.036  12.550
 9347WAT      O41991   4.858   5.294   2.651
 9347WAT     H141992   4.870   5.251   2.567
 9347WAT     H241993   4.946   5.320   2.678
 9348WAT      O41994   3.054   2.522   4.944
 9348WAT     H141995   3.135   2.536   4.894
 9348WAT     H241996   3.023   2.610   4.963
 9349WAT      O41997   0.264   4.358   0.015
 9349WAT     H141998   0.222   4.427   0.067
 9349WAT     H241999   0.281   4.287   0.077
 9350WAT      O42000   1.949   2.147   2.287
 9350WAT     H142001   1.879   2.209   2.264
 9350WAT     H242002   1.972   2.105   2.204
 9351WAT      O42003   1.445   3.304   9.032
 9351WAT     H142004   1.499   3.361   8.977
 9351WAT     H242005   1.367   3.286   8.981
 9352WAT      O42006   3.939   2.201   3.098
 9352WAT     H142007   3.938   2.114   3.058
 9352WAT     H242008   3.960   2.186   3.190
 9353WAT      O42009   3.764   4.373   2.965
 9353WAT     H142010   3.725   4.441   3.020
 9353WAT     H242011   3.732   4.392   2.877
 9354WAT      O42012   5.975   2.471   7.935
 9354WAT     H142013   6.040   2.522   7.983
 9354WAT     H242014   6.024   2.430   7.864
 9355WAT      O42015   0.865   5.007   2.139
 9355WAT     H142016   0.912   5.063   2.200
 9355WAT     H242017   0.869   4.920   2.177
 9356WAT      O42018   3.829   4.588   2.600
 9356WAT     H142019   3.761   4.528   2.629
 9356WAT     H242020   3.784   4.672   2.587
 9357WAT      O42021   4.080   0.792   2.943
 9357WAT     H142022   4.104   0.702   2.964
 9357WAT     H242023   4.161   0.831   2.909
 9358WAT      O42024   1.948   1.774   9.974
 9358WAT     H142025   2.002   1.804   9.902
 9358WAT     H242026   2.010   1.745  10.041
 9359WAT      O42027   4.422   6.052   0.196
 9359WAT     H142028   4.457   6.040   0.285
 9359WAT     H242029   4.409   5.963   0.164
 9360WAT      O42030   0.343   2.998   4.173
 9360WAT     H142031   0.302   3.084   4.183
 9360WAT     H242032   0.421   3.001   4.229
 9361WAT      O42033   4.611   1.185  11.825
 9361WAT     H142034   4.661   1.266  11.820
 9361WAT     H242035   4.557   1.195  11.904
 9362WAT      O42036   6.085   6.112   4.059
 9362WAT     H142037   6.060   6.121   4.150
 9362WAT     H242038   6.177   6.085   4.062
 9363WAT      O42039   6.070   2.667   1.057
 9363WAT     H142040   6.117   2.597   1.011
 9363WAT     H242041   6.124   2.745   1.044
 9364WAT      O42042   6.031   2.419  11.176
 9364WAT     H142043   5.954   2.475  11.169
 9364WAT     H242044   6.057   2.402  11.086
 9365WAT      O42045   3.537   0.572  10.443
 9365WAT     H142046   3.519   0.640  10.508
 9365WAT     H242047   3.454   0.524  10.436
 9366WAT      O42048   1.059   2.913   0.852
 9366WAT     H142049   1.114   2.884   0.779
 9366WAT     H242050   0.970   2.896   0.824
 9367WAT      O42051   3.313   4.715   3.894
 9367WAT     H142052   3.325   4.671   3.978
 9367WAT     H242053   3.287   4.804   3.916
 9368WAT      O42054   0.501   0.236   2.795
 9368WAT     H142055   0.418   0.261   2.754
 9368WAT     H242056   0.561   0.307   2.773
 9369WAT      O42057   4.078   2.565   1.754
 9369WAT     H142058   4.067   2.565   1.850
 9369WAT     H242059   4.165   2.529   1.740
 9370WAT      O42060   3.028   1.148   3.415
 9370WAT     H142061   3.026   1.239   3.385
 9370WAT     H242062   2.964   1.146   3.487
 9371WAT      O42063   2.185   1.183  10.206
 9371WAT     H142064   2.213   1.148  10.122
 9371WAT     H242065   2.093   1.207  10.193
 9372WAT      O42066   4.364   3.996   2.738
 9372WAT     H142067   4.340   3.926   2.678
 9372WAT     H242068   4.350   4.076   2.687
 9373WAT      O42069   1.781   2.027  10.056
 9373WAT     H142070   1.834   1.952  10.080
 9373WAT     H242071   1.753   2.011   9.966
 9374WAT      O42072   2.690   0.101   1.384
 9374WAT     H142073   2.722   0.187   1.356
 9374WAT     H242074   2.631   0.073   1.314
 9375WAT      O42075   3.305   5.382   8.646
 9375WAT     H142076   3.286   5.463   8.600
 9375WAT     H242077   3.319   5.317   8.577
 9376WAT      O42078   4.908   5.497  12.097
 9376WAT     H142079   4.832   5.441  12.114
 9376WAT     H242080   4.907   5.510  12.002
 9377WAT      O42081   5.654   3.951  10.226
 9377WAT     H142082   5.716   3.975  10.295
 9377WAT     H242083   5.677   3.860  10.205
 9378WAT      O42084   1.155   5.656  10.885
 9378WAT     H142085   1.128   5.747  10.873
 9378WAT     H242086   1.153   5.642  10.979
 9379WAT      O42087   2.501   5.794   0.835
 9379WAT     H142088   2.497   5.719   0.774
 9379WAT     H242089   2.503   5.754   0.922
 9380WAT      O42090   1.776   1.825  12.396
 9380WAT     H142091   1.853   1.879  12.383
 9380WAT     H242092   1.733   1.823  12.311
 9381WAT      O42093   3.021   6.049   0.199
 9381WAT     H142094   3.015   6.091   0.285
 9381WAT     H242095   3.059   5.963   0.216
 9382WAT      O42096   3.515   0.804  10.263
 9382WAT     H142097   3.555   0.801  10.176
 9382WAT     H242098   3.487   0.714  10.279
 9383WAT      O42099   0.529   3.702   1.064
 9383WAT     H142100   0.436   3.712   1.046
 9383WAT     H242101   0.555   3.784   1.104
 9384WAT      O42102   2.498   2.277   0.812
 9384WAT     H142103   2.477   2.341   0.880
 9384WAT     H242104   2.553   2.213   0.857
 9385WAT      O42105   2.645   5.742   1.941
 9385WAT     H142106   2.577   5.742   1.873
 9385WAT     H242107   2.719   5.697   1.901
 9386WAT      O42108   4.547   3.524  11.012
 9386WAT     H142109   4.475   3.585  11.029
 9386WAT     H242110   4.554   3.521  10.917
 9387WAT      O42111   3.632   3.233   2.736
 9387WAT     H142112   3.621   3.326   2.714
 9387WAT     H242113   3.595   3.186   2.661
 9388WAT      O42114   1.189   0.204   1.200
 9388WAT     H142115   1.108   0.152   1.198
 9388WAT     H242116   1.253   0.150   1.154
 9389WAT      O42117   2.651   3.889   2.024
 9389WAT     H142118   2.638   3.880   1.929
 9389WAT     H242119   2.650   3.983   2.040
 9390WAT      O42120   0.336   1.646  12.348
 9390WAT     H142121   0.428   1.633  12.327
 9390WAT     H242122   0.322   1.595  12.428
 9391WAT      O42123   2.566   1.698   1.750
 9391WAT     H142124   2.637   1.634   1.749
 9391WAT     H242125   2.517   1.680   1.830
 9392WAT      O42126   5.299   2.005  10.601
 9392WAT     H142127   5.313   1.915  10.572
 9392WAT     H242128   5.366   2.056  10.556
 9393WAT      O42129   1.382   3.243   9.456
 9393WAT     H142130   1.395   3.182   9.530
 9393WAT     H242131   1.293   3.274   9.467
 9394WAT      O42132   4.540   4.227   3.614
 9394WAT     H142133   4.605   4.157   3.614
 9394WAT     H242134   4.488   4.211   3.536
 9395WAT      O42135   4.782   0.695   9.637
 9395WAT     H142136   4.876   0.710   9.645
 9395WAT     H242137   4.755   0.660   9.722
 9396WAT      O42138   0.674   4.128   0.346
 9396WAT     H142139   0.601   4.189   0.357
 9396WAT     H242140   0.666   4.067   0.420
 9397WAT      O42141   3.817   1.351   3.591
 9397WAT     H142142   3.781   1.439   3.580
 9397WAT     H242143   3.904   1.356   3.553
 9398WAT      O42144   2.580   6.176   9.668
 9398WAT     H142145   2.636   6.104   9.694
 9398WAT     H242146   2.491   6.143   9.679
 9399WAT      O42147   5.360   0.858  10.799
 9399WAT     H142148   5.387   0.949  10.790
 9399WAT     H242149   5.397   0.831  10.883
 9400WAT      O42150   2.821   2.095   1.720
 9400WAT     H142151   2.759   2.079   1.649
 9400WAT     H242152   2.795   2.035   1.789
 9401WAT      O42153   2.731   5.269   7.844
 9401WAT     H142154   2.672   5.198   7.866
 9401WAT     H242155   2.727   5.275   7.748
 9402WAT      O42156   0.219   4.708   3.658
 9402WAT     H142157   0.314   4.707   3.661
 9402WAT     H242158   0.196   4.801   3.651
 9403WAT      O42159   5.473   3.745   9.541
 9403WAT     H142160   5.568   3.757   9.548
 9403WAT     H242161   5.452   3.775   9.453
 9404WAT      O42162   4.971   5.216  11.094
 9404WAT     H142163   4.954   5.258  11.010
 9404WAT     H242164   5.066   5.208  11.099
 9405WAT      O42165   4.921   2.206   7.966
 9405WAT     H142166   4.889   2.296   7.972
 9405WAT     H242167   4.974   2.204   7.886
 9406WAT      O42168   5.783   3.866   3.024
 9406WAT     H142169   5.819   3.788   2.981
 9406WAT     H242170   5.830   3.871   3.107
 9407WAT      O42171   3.392   1.698   9.020
 9407WAT     H142172   3.453   1.730   9.086
 9407WAT     H242173   3.365   1.611   9.052
 9408WAT      O42174   2.234   5.303   3.693
 9408WAT     H142175   2.293   5.335   3.761
 9408WAT     H242176   2.171   5.248   3.739
 9409WAT      O42177   1.412   5.322  10.651
 9409WAT     H142178   1.379   5.343  10.738
 9409WAT     H242179   1.339   5.343  10.592
 9410WAT      O42180   0.184   0.870   3.898
 9410WAT     H142181   0.197   0.795   3.840
 9410WAT     H242182   0.152   0.832   3.980
 9411WAT      O42183   2.966   2.845   4.425
 9411WAT     H142184   2.920   2.929   4.413
 9411WAT     H242185   3.019   2.859   4.504
 9412WAT      O42186   4.810   5.959   1.836
 9412WAT     H142187   4.755   5.989   1.763
 9412WAT     H242188   4.754   5.965   1.913
 9413WAT      O42189   4.760   2.881   1.619
 9413WAT     H142190   4.693   2.858   1.684
 9413WAT     H242191   4.767   2.976   1.624
 9414WAT      O42192   2.351   2.239  11.264
 9414WAT     H142193   2.391   2.324  11.281
 9414WAT     H242194   2.412   2.196  11.203
 9415WAT      O42195   2.906   4.237   0.111
 9415WAT     H142196   2.998   4.252   0.133
 9415WAT     H242197   2.889   4.148   0.143
 9416WAT      O42198   0.247   2.639   1.202
 9416WAT     H142199   0.267   2.619   1.111
 9416WAT     H242200   0.198   2.563   1.234
 9417WAT      O42201   2.793   6.129  10.400
 9417WAT     H142202   2.804   6.121  10.305
 9417WAT     H242203   2.699   6.142  10.413
 9418WAT      O42204   5.485   5.302   4.391
 9418WAT     H142205   5.555   5.367   4.394
 9418WAT     H242206   5.484   5.264   4.479
 9419WAT      O42207   4.658   0.196  11.438
 9419WAT     H142208   4.700   0.125  11.389
 9419WAT     H242209   4.570   0.163  11.457
 9420WAT      O42210   1.026   1.849   2.882
 9420WAT     H142211   1.060   1.910   2.948
 9420WAT     H242212   0.964   1.901   2.831
 9421WAT      O42213   5.592   2.161   0.119
 9421WAT     H142214   5.618   2.237   0.170
 9421WAT     H242215   5.520   2.192   0.065
 9422WAT      O42216   5.240   5.884  10.234
 9422WAT     H142217   5.335   5.893  10.229
 9422WAT     H242218   5.209   5.966  10.270
 9423WAT      O42219   0.253   2.145   0.217
 9423WAT     H142220   0.282   2.090   0.144
 9423WAT     H242221   0.163   2.169   0.194
 9424WAT      O42222   3.023   2.442  12.265
 9424WAT     H142223   3.119   2.444  12.262
 9424WAT     H242224   3.001   2.349  12.254
 9425WAT      O42225   3.849   2.332   7.996
 9425WAT     H142226   3.888   2.245   7.988
 9425WAT     H242227   3.899   2.375   8.066
 9426WAT      O42228   1.492   0.667   2.038
 9426WAT     H142229   1.443   0.688   1.958
 9426WAT     H242230   1.426   0.631   2.097
 9427WAT      O42231   1.297   0.603   2.698
 9427WAT     H142232   1.284   0.653   2.778
 9427WAT     H242233   1.223   0.541   2.696
 9428WAT      O42234   0.698   5.696   5.317
 9428WAT     H142235   0.758   5.642   5.368
 9428WAT     H242236   0.671   5.641   5.244
 9429WAT      O42237   3.059   5.479  10.525
 9429WAT     H142238   3.054   5.557  10.581
 9429WAT     H242239   2.983   5.426  10.551
 9430WAT      O42240   4.932   1.444   0.649
 9430WAT     H142241   4.954   1.507   0.581
 9430WAT     H242242   4.865   1.388   0.610
 9431WAT      O42243   1.686   3.265   3.755
 9431WAT     H142244   1.604   3.248   3.801
 9431WAT     H242245   1.660   3.313   3.677
 9432WAT      O42246   6.075   4.672  12.035
 9432WAT     H142247   6.149   4.688  12.093
 9432WAT     H242248   6.086   4.581  12.007
 9433WAT      O42249   2.237   2.635   1.873
 9433WAT     H142250   2.145   2.649   1.851
 9433WAT     H242251   2.234   2.593   1.959
 9434WAT      O42252   2.741   1.585  10.992
 9434WAT     H142253   2.816   1.526  10.986
 9434WAT     H242254   2.708   1.591  10.902
 9435WAT      O42255   5.667   1.658  11.661
 9435WAT     H142256   5.670   1.570  11.623
 9435WAT     H242257   5.718   1.712  11.601
 9436WAT      O42258   1.516   3.920  10.174
 9436WAT     H142259   1.453   3.992  10.170
 9436WAT     H242260   1.491   3.863  10.101
 9437WAT      O42261   4.282   4.440  10.501
 9437WAT     H142262   4.293   4.479  10.414
 9437WAT     H242263   4.219   4.497  10.544
 9438WAT      O42264   1.380   4.910   3.825
 9438WAT     H142265   1.299   4.959   3.827
 9438WAT     H242266   1.402   4.902   3.732
 9439WAT      O42267   1.698   2.345   2.294
 9439WAT     H142268   1.662   2.285   2.228
 9439WAT     H242269   1.709   2.428   2.247
 9440WAT      O42270   2.875   1.087  11.038
 9440WAT     H142271   2.863   1.134  11.121
 9440WAT     H242272   2.794   1.037  11.027
 9441WAT      O42273   2.872   2.485   8.334
 9441WAT     H142274   2.825   2.523   8.260
 9441WAT     H242275   2.842   2.394   8.337
 9442WAT      O42276   2.904   5.966   9.551
 9442WAT     H142277   2.820   5.922   9.562
 9442WAT     H242278   2.933   5.942   9.462
 9443WAT      O42279   1.413   1.351   4.039
 9443WAT     H142280   1.442   1.259   4.045
 9443WAT     H242281   1.328   1.346   3.995
 9444WAT      O42282   1.538   0.935   8.615
 9444WAT     H142283   1.561   1.008   8.671
 9444WAT     H242284   1.618   0.882   8.609
 9445WAT      O42285   0.552   5.070   8.898
 9445WAT     H142286   0.632   5.029   8.864
 9445WAT     H242287   0.502   4.997   8.935
 9446WAT      O42288   0.972   6.173   2.719
 9446WAT     H142289   1.029   6.217   2.782
 9446WAT     H242290   0.884   6.178   2.758
 9447WAT      O42291   2.270   1.484   8.058
 9447WAT     H142292   2.268   1.573   8.023
 9447WAT     H242293   2.179   1.464   8.077
 9448WAT      O42294   5.817   3.497  11.603
 9448WAT     H142295   5.893   3.553  11.621
 9448WAT     H242296   5.754   3.519  11.671
 9449WAT      O42297   1.158   2.401   0.942
 9449WAT     H142298   1.226   2.353   0.895
 9449WAT     H242299   1.081   2.343   0.939
 9450WAT      O42300   5.666   0.122   0.675
 9450WAT     H142301   5.692   0.211   0.699
 9450WAT     H242302   5.667   0.122   0.579
 9451WAT      O42303   0.522   3.507  11.991
 9451WAT     H142304   0.588   3.448  11.956
 9451WAT     H242305   0.453   3.449  12.023
 9452WAT      O42306   5.238   0.525   8.821
 9452WAT     H142307   5.288   0.469   8.762
 9452WAT     H242308   5.221   0.604   8.771
 9453WAT      O42309   2.555   5.098   3.748
 9453WAT     H142310   2.557   5.123   3.841
 9453WAT     H242311   2.641   5.061   3.731
 9454WAT      O42312   4.124   0.697  12.087
 9454WAT     H142313   4.155   0.617  12.045
 9454WAT     H242314   4.032   0.704  12.062
 9455WAT      O42315   5.806   1.802   0.554
 9455WAT     H142316   5.855   1.721   0.544
 9455WAT     H242317   5.869   1.872   0.539
 9456WAT      O42318   0.433   4.211   1.628
 9456WAT     H142319   0.365   4.144   1.636
 9456WAT     H242320   0.482   4.186   1.549
 9457WAT      O42321   6.032   1.110   7.575
 9457WAT     H142322   6.127   1.114   7.581
 9457WAT     H242323   6.007   1.046   7.642
 9458WAT      O42324   3.527   4.378  -0.016
 9458WAT     H142325   3.475   4.428   0.046
 9458WAT     H242326   3.582   4.321   0.038
 9459WAT      O42327   3.338   5.997   3.166
 9459WAT     H142328   3.414   5.940   3.177
 9459WAT     H242329   3.370   6.084   3.190
 9460WAT      O42330   4.497   3.659  10.263
 9460WAT     H142331   4.408   3.693  10.252
 9460WAT     H242332   4.514   3.610  10.183
 9461WAT      O42333   4.495   3.472   8.031
 9461WAT     H142334   4.472   3.393   7.981
 9461WAT     H242335   4.448   3.464   8.113
 9462WAT      O42336   2.913   0.541  11.369
 9462WAT     H142337   2.865   0.462  11.394
 9462WAT     H242338   2.867   0.573  11.291
 9463WAT      O42339   4.241   5.846   9.239
 9463WAT     H142340   4.335   5.828   9.230
 9463WAT     H242341   4.237   5.915   9.306
 9464WAT      O42342   6.217   1.313  11.427
 9464WAT     H142343   6.150   1.314  11.359
 9464WAT     H242344   6.224   1.221  11.453
 9465WAT      O42345   2.464   4.472   3.030
 9465WAT     H142346   2.392   4.534   3.039
 9465WAT     H242347   2.478   4.465   2.936
 9466WAT      O42348   5.081   4.284  12.279
 9466WAT     H142349   5.145   4.314  12.215
 9466WAT     H242350   5.021   4.229  12.229
 9467WAT      O42351   4.423   5.774  12.249
 9467WAT     H142352   4.412   5.869  12.258
 9467WAT     H242353   4.448   5.761  12.158
 9468WAT      O42354   0.186   1.084   2.377
 9468WAT     H142355   0.163   1.024   2.307
 9468WAT     H242356   0.254   1.140   2.339
 9469WAT      O42357   2.587   2.961   8.886
 9469WAT     H142358   2.500   2.956   8.846
 9469WAT     H242359   2.615   2.870   8.894
 9470WAT      O42360   1.229   0.284   8.271
 9470WAT     H142361   1.235   0.369   8.228
 9470WAT     H242362   1.158   0.238   8.226
 9471WAT      O42363   1.148   1.522   4.135
 9471WAT     H142364   1.195   1.447   4.171
 9471WAT     H242365   1.216   1.580   4.101
 9472WAT      O42366   2.584   2.224   8.962
 9472WAT     H142367   2.661   2.278   8.981
 9472WAT     H242368   2.620   2.136   8.949
 9473WAT      O42369   3.787   5.021   2.941
 9473WAT     H142370   3.847   5.070   2.998
 9473WAT     H242371   3.843   4.986   2.872
 9474WAT      O42372   5.537   1.102   9.156
 9474WAT     H142373   5.541   1.014   9.118
 9474WAT     H242374   5.448   1.110   9.188
 9475WAT      O42375   5.811   2.581  11.436
 9475WAT     H142376   5.800   2.491  11.467
 9475WAT     H242377   5.776   2.580  11.347
 9476WAT      O42378   4.432   5.799  12.595
 9476WAT     H142379   4.487   5.863  12.549
 9476WAT     H242380   4.402   5.740  12.526
 9477WAT      O42381   2.505   4.099   9.497
 9477WAT     H142382   2.573   4.098   9.565
 9477WAT     H242383   2.536   4.162   9.433
 9478WAT      O42384   1.721   4.662   9.038
 9478WAT     H142385   1.648   4.613   9.076
 9478WAT     H242386   1.768   4.598   8.984
 9479WAT      O42387   1.625   5.337  12.663
 9479WAT     H142388   1.549   5.357  12.717
 9479WAT     H242389   1.670   5.421  12.652
 9480WAT      O42390   0.191   2.840   4.323
 9480WAT     H142391   0.254   2.883   4.265
 9480WAT     H242392   0.107   2.853   4.280
 9481WAT      O42393   0.824   1.967   1.289
 9481WAT     H142394   0.839   2.055   1.324
 9481WAT     H242395   0.804   1.980   1.197
 9482WAT      O42396   2.212   0.571   8.248
 9482WAT     H142397   2.179   0.545   8.162
 9482WAT     H242398   2.198   0.495   8.303
 9483WAT      O42399   2.751  -0.003   3.779
 9483WAT     H142400   2.814  -0.006   3.707
 9483WAT     H242401   2.805   0.011   3.857
 9484WAT      O42402   1.356   3.282   4.099
 9484WAT     H142403   1.311   3.211   4.146
 9484WAT     H242404   1.410   3.324   4.165
 9485WAT      O42405   1.904   3.869   0.563
 9485WAT     H142406   1.973   3.928   0.593
 9485WAT     H242407   1.864   3.914   0.489
 9486WAT      O42408   1.950   3.307  10.282
 9486WAT     H142409   1.979   3.301  10.191
 9486WAT     H242410   1.978   3.394  10.311
 9487WAT      O42411   5.561   3.620   3.687
 9487WAT     H142412   5.528   3.580   3.767
 9487WAT     H242413   5.507   3.698   3.676
 9488WAT      O42414   0.315   2.173  10.596
 9488WAT     H142415   0.385   2.218  10.644
 9488WAT     H242416   0.314   2.085  10.633
 9489WAT      O42417   2.242   2.462   0.929
 9489WAT     H142418   2.188   2.519   0.984
 9489WAT     H242419   2.322   2.448   0.980
 9490WAT      O42420   5.512   3.604   0.620
 9490WAT     H142421   5.437   3.632   0.672
 9490WAT     H242422   5.529   3.677   0.561
 9491WAT      O42423   4.420   0.739  11.496
 9491WAT     H142424   4.411   0.792  11.416
 9491WAT     H242425   4.395   0.651  11.469
 9492WAT      O42426   0.478   3.121   2.803
 9492WAT     H142427   0.491   3.202   2.853
 9492WAT     H242428   0.542   3.126   2.733
 9493WAT      O42429   2.167   5.059  10.039
 9493WAT     H142430   2.123   5.124   9.984
 9493WAT     H242431   2.236   5.109  10.083
 9494WAT      O42432   5.857   1.306   2.403
 9494WAT     H142433   5.918   1.270   2.339
 9494WAT     H242434   5.823   1.386   2.362
 9495WAT      O42435   3.431   3.718  12.258
 9495WAT     H142436   3.493   3.787  12.281
 9495WAT     H242437   3.348   3.764  12.247
 9496WAT      O42438   3.279   3.794  11.829
 9496WAT     H142439   3.221   3.870  11.835
 9496WAT     H242440   3.359   3.822  11.875
 9497WAT      O42441   5.121   3.085   8.562
 9497WAT     H142442   5.171   3.100   8.482
 9497WAT     H242443   5.127   2.991   8.578
 9498WAT      O42444   1.155   2.905   3.452
 9498WAT     H142445   1.172   2.817   3.484
 9498WAT     H242446   1.064   2.922   3.475
 9499WAT      O42447   0.560   1.024   1.270
 9499WAT     H142448   0.526   1.114   1.266
 9499WAT     H242449   0.489   0.970   1.237
 9500WAT      O42450   3.921   3.348   7.575
 9500WAT     H142451   3.852   3.302   7.623
 9500WAT     H242452   4.000   3.298   7.594
 9501WAT      O42453   6.045   5.248   8.598
 9501WAT     H142454   6.018   5.160   8.571
 9501WAT     H242455   6.070   5.291   8.517
 9502WAT      O42456   5.311   5.968   9.814
 9502WAT     H142457   5.391   5.988   9.765
 9502WAT     H242458   5.340   5.915   9.888
 9503WAT      O42459   1.108   2.265  10.071
 9503WAT     H142460   1.193   2.227  10.095
 9503WAT     H242461   1.100   2.247   9.977
 9504WAT      O42462   1.173   0.719   9.951
 9504WAT     H142463   1.172   0.655   9.879
 9504WAT     H242464   1.239   0.783   9.926
 9505WAT      O42465   0.054   2.425   9.302
 9505WAT     H142466  -0.023   2.477   9.279
 9505WAT     H242467   0.057   2.356   9.235
 9506WAT      O42468   1.334   0.294  12.409
 9506WAT     H142469   1.243   0.264  12.418
 9506WAT     H242470   1.347   0.355  12.481
 9507WAT      O42471   5.615   1.863  10.178
 9507WAT     H142472   5.548   1.796  10.162
 9507WAT     H242473   5.692   1.832  10.130
 9508WAT      O42474   0.850   3.788  10.107
 9508WAT     H142475   0.813   3.709  10.069
 9508WAT     H242476   0.793   3.807  10.182
 9509WAT      O42477   1.404   5.601  10.989
 9509WAT     H142478   1.327   5.625  10.937
 9509WAT     H242479   1.392   5.508  11.008
 9510WAT      O42480   0.552   3.480   9.717
 9510WAT     H142481   0.553   3.385   9.730
 9510WAT     H242482   0.461   3.505   9.732
 9511WAT      O42483   0.569   3.076   4.020
 9511WAT     H142484   0.502   3.082   3.952
 9511WAT     H242485   0.527   3.026   4.091
 9512WAT      O42486   2.792   1.056  10.584
 9512WAT     H142487   2.731   1.126  10.565
 9512WAT     H242488   2.738   0.984  10.616
 9513WAT      O42489   5.179   4.075   9.573
 9513WAT     H142490   5.105   4.076   9.513
 9513WAT     H242491   5.139   4.076   9.660
 9514WAT      O42492   6.088   1.287   9.720
 9514WAT     H142493   6.017   1.317   9.664
 9514WAT     H242494   6.057   1.204   9.757
 9515WAT      O42495   4.874   1.443   9.734
 9515WAT     H142496   4.968   1.452   9.748
 9515WAT     H242497   4.840   1.411   9.817
 9516WAT      O42498   5.682   2.976   1.915
 9516WAT     H142499   5.660   2.969   1.822
 9516WAT     H242500   5.746   2.907   1.930
 9517WAT      O42501   0.808   5.067  10.775
 9517WAT     H142502   0.757   5.088  10.853
 9517WAT     H242503   0.809   4.971  10.772
 9518WAT      O42504   6.061   2.575   8.971
 9518WAT     H142505   5.993   2.643   8.969
 9518WAT     H242506   6.097   2.581   9.059
 9519WAT      O42507   3.320   3.266   1.897
 9519WAT     H142508   3.406   3.307   1.907
 9519WAT     H242509   3.326   3.218   1.815
 9520WAT      O42510   1.032   0.809  11.155
 9520WAT     H142511   1.001   0.888  11.200
 9520WAT     H242512   0.985   0.737  11.198
 9521WAT      O42513   4.818   0.410   9.351
 9521WAT     H142514   4.781   0.488   9.393
 9521WAT     H242515   4.799   0.422   9.258
 9522WAT      O42516   4.593   3.119   2.087
 9522WAT     H142517   4.569   3.210   2.101
 9522WAT     H242518   4.641   3.119   2.004
 9523WAT      O42519   4.604   5.163   1.577
 9523WAT     H142520   4.539   5.101   1.610
 9523WAT     H242521   4.639   5.121   1.498
 9524WAT      O42522   2.392   2.812   2.911
 9524WAT     H142523   2.333   2.736   2.908
 9524WAT     H242524   2.342   2.883   2.870
 9525WAT      O42525   0.282   1.083  10.315
 9525WAT     H142526   0.302   1.133  10.394
 9525WAT     H242527   0.197   1.115  10.287
 9526WAT      O42528   4.533   6.185   4.082
 9526WAT     H142529   4.520   6.273   4.047
 9526WAT     H242530   4.490   6.127   4.020
 9527WAT      O42531   0.229   3.736   1.154
 9527WAT     H142532   0.237   3.643   1.173
 9527WAT     H242533   0.173   3.741   1.077
 9528WAT      O42534   2.556   2.573  11.714
 9528WAT     H142535   2.466   2.550  11.738
 9528WAT     H242536   2.603   2.578  11.797
 9529WAT      O42537   1.177   5.935   8.608
 9529WAT     H142538   1.098   5.888   8.636
 9529WAT     H242539   1.154   5.972   8.523
 9530WAT      O42540   2.873   1.887  12.073
 9530WAT     H142541   2.868   1.967  12.020
 9530WAT     H242542   2.826   1.822  12.023
 9531WAT      O42543   3.364   3.611  10.983
 9531WAT     H142544   3.341   3.542  11.046
 9531WAT     H242545   3.385   3.687  11.038
 9532WAT      O42546   2.975   4.299   3.309
 9532WAT     H142547   3.039   4.240   3.349
 9532WAT     H242548   2.985   4.285   3.215
 9533WAT      O42549   4.498   4.414  12.310
 9533WAT     H142550   4.531   4.454  12.230
 9533WAT     H242551   4.543   4.330  12.315
 9534WAT      O42552   2.075   1.914   0.783
 9534WAT     H142553   2.141   1.892   0.717
 9534WAT     H242554   1.993   1.922   0.734
 9535WAT      O42555   2.689   2.428   3.550
 9535WAT     H142556   2.671   2.497   3.613
 9535WAT     H242557   2.690   2.472   3.465
 9536WAT      O42558   1.973   2.021  11.253
 9536WAT     H142559   1.958   2.057  11.165
 9536WAT     H242560   2.068   2.017  11.261
 9537WAT      O42561   5.973   3.221   9.993
 9537WAT     H142562   5.914   3.244  10.064
 9537WAT     H242563   6.037   3.293   9.991
 9538WAT      O42564   1.886   0.877   1.895
 9538WAT     H142565   1.895   0.971   1.904
 9538WAT     H242566   1.841   0.865   1.811
 9539WAT      O42567   2.358   3.971   9.087
 9539WAT     H142568   2.346   4.015   9.003
 9539WAT     H242569   2.340   4.039   9.153
 9540WAT      O42570   5.769   1.723   1.833
 9540WAT     H142571   5.797   1.809   1.865
 9540WAT     H242572   5.685   1.708   1.875
 9541WAT      O42573   5.807   3.231   2.641
 9541WAT     H142574   5.822   3.190   2.726
 9541WAT     H242575   5.713   3.224   2.627
 9542WAT      O42576   0.559   3.525   3.360
 9542WAT     H142577   0.640   3.548   3.315
 9542WAT     H242578   0.494   3.520   3.291
 9543WAT      O42579   5.894   0.760   8.304
 9543WAT     H142580   5.893   0.700   8.231
 9543WAT     H242581   5.911   0.846   8.265
 9544WAT      O42582   2.450   5.084   4.027
 9544WAT     H142583   2.446   5.174   4.060
 9544WAT     H242584   2.365   5.046   4.048
 9545WAT      O42585   5.426   3.009   9.437
 9545WAT     H142586   5.415   3.063   9.359
 9545WAT     H242587   5.384   2.926   9.416
 9546WAT      O42588   1.509   3.317  10.847
 9546WAT     H142589   1.453   3.356  10.915
 9546WAT     H242590   1.484   3.363  10.767
 9547WAT      O42591   4.961   0.715   7.802
 9547WAT     H142592   4.943   0.657   7.729
 9547WAT     H242593   5.052   0.697   7.825
 9548WAT      O42594   2.620   3.778   9.531
 9548WAT     H142595   2.613   3.864   9.489
 9548WAT     H242596   2.706   3.779   9.573
 9549WAT      O42597   3.978   3.076   9.075
 9549WAT     H142598   4.041   3.133   9.031
 9549WAT     H242599   4.032   3.013   9.123
 9550WAT      O42600   2.182   6.136  11.699
 9550WAT     H142601   2.112   6.137  11.764
 9550WAT     H242602   2.214   6.226  11.697
 9551WAT      O42603   2.337   5.928   2.059
 9551WAT     H142604   2.327   5.897   2.149
 9551WAT     H242605   2.274   6.000   2.051
 9552WAT      O42606   4.645   2.865  12.210
 9552WAT     H142607   4.663   2.951  12.248
 9552WAT     H242608   4.699   2.805  12.261
 9553WAT      O42609   3.164   5.060   3.117
 9553WAT     H142610   3.219   4.982   3.115
 9553WAT     H242611   3.081   5.031   3.079
 9554WAT      O42612   3.163   3.202   9.704
 9554WAT     H142613   3.211   3.123   9.679
 9554WAT     H242614   3.184   3.266   9.637
 9555WAT      O42615   4.342   4.258   9.851
 9555WAT     H142616   4.270   4.218   9.901
 9555WAT     H242617   4.356   4.343   9.893
 9556WAT      O42618   3.140   6.116  10.796
 9556WAT     H142619   3.177   6.036  10.759
 9556WAT     H242620   3.216   6.169  10.821
 9557WAT      O42621   0.318   4.486   8.285
 9557WAT     H142622   0.352   4.397   8.298
 9557WAT     H242623   0.239   4.489   8.338
 9558WAT      O42624   4.709   0.881  10.736
 9558WAT     H142625   4.756   0.960  10.763
 9558WAT     H242626   4.689   0.836  10.818
 9559WAT      O42627   5.864   0.666   1.214
 9559WAT     H142628   5.832   0.752   1.239
 9559WAT     H242629   5.917   0.637   1.289
 9560WAT      O42630   6.146   0.800  11.026
 9560WAT     H142631   6.130   0.782  10.933
 9560WAT     H242632   6.069   0.764  11.071
 9561WAT      O42633   0.524   1.222   9.854
 9561WAT     H142634   0.544   1.274   9.931
 9561WAT     H242635   0.449   1.168   9.880
 9562WAT      O42636   1.660   1.414  10.237
 9562WAT     H142637   1.698   1.373  10.314
 9562WAT     H242638   1.704   1.499  10.231
 9563WAT      O42639   2.373   5.128  11.725
 9563WAT     H142640   2.420   5.212  11.732
 9563WAT     H242641   2.441   5.065  11.700
 9564WAT      O42642   0.880   1.123   9.847
 9564WAT     H142643   0.815   1.159   9.786
 9564WAT     H242644   0.830   1.103   9.926
 9565WAT      O42645   1.871   2.367   8.872
 9565WAT     H142646   1.921   2.424   8.814
 9565WAT     H242647   1.780   2.384   8.850
 9566WAT      O42648   0.463   0.035  10.507
 9566WAT     H142649   0.415   0.048  10.425
 9566WAT     H242650   0.484  -0.058  10.508
 9567WAT      O42651   3.035   1.274   1.157
 9567WAT     H142652   3.059   1.183   1.135
 9567WAT     H242653   3.119   1.318   1.170
 9568WAT      O42654   4.114   3.939  10.773
 9568WAT     H142655   4.157   4.020  10.799
 9568WAT     H242656   4.032   3.967  10.733
 9569WAT      O42657   0.345   5.809   5.225
 9569WAT     H142658   0.389   5.884   5.184
 9569WAT     H242659   0.373   5.812   5.317
 9570WAT      O42660   5.031   4.633  12.208
 9570WAT     H142661   5.053   4.677  12.290
 9570WAT     H242662   5.080   4.680  12.141
 9571WAT      O42663   5.270   1.596   0.975
 9571WAT     H142664   5.222   1.536   1.032
 9571WAT     H242665   5.203   1.650   0.934
 9572WAT      O42666   4.149   4.444   0.908
 9572WAT     H142667   4.203   4.521   0.926
 9572WAT     H242668   4.182   4.412   0.824
 9573WAT      O42669   0.731   4.939   2.797
 9573WAT     H142670   0.785   4.863   2.820
 9573WAT     H242671   0.761   4.965   2.710
 9574WAT      O42672   0.141   4.451   1.837
 9574WAT     H142673   0.193   4.449   1.756
 9574WAT     H242674   0.167   4.532   1.880
 9575WAT      O42675   1.764   2.004   3.984
 9575WAT     H142676   1.848   1.976   4.020
 9575WAT     H242677   1.747   1.942   3.913
 9576WAT      O42678   0.147   1.424   4.508
 9576WAT     H142679   0.091   1.348   4.527
 9576WAT     H242680   0.231   1.402   4.549
 9577WAT      O42681   3.858   0.627   0.081
 9577WAT     H142682   3.815   0.541   0.079
 9577WAT     H242683   3.951   0.606   0.096
 9578WAT      O42684   3.368   3.573   7.794
 9578WAT     H142685   3.309   3.642   7.764
 9578WAT     H242686   3.415   3.546   7.716
 9579WAT      O42687   2.383   5.531  11.929
 9579WAT     H142688   2.418   5.480  11.857
 9579WAT     H242689   2.456   5.539  11.990
 9580WAT      O42690   2.068   2.831   3.447
 9580WAT     H142691   2.021   2.767   3.500
 9580WAT     H242692   2.134   2.868   3.506
 9581WAT      O42693   5.363   1.036   8.722
 9581WAT     H142694   5.307   0.976   8.770
 9581WAT     H242695   5.403   0.982   8.653
 9582WAT      O42696   4.406   3.641  11.236
 9582WAT     H142697   4.390   3.689  11.154
 9582WAT     H242698   4.501   3.632  11.240
 9583WAT      O42699   2.617   2.214   5.006
 9583WAT     H142700   2.559   2.265   4.950
 9583WAT     H242701   2.573   2.129   5.015
 9584WAT      O42702   6.193   1.429   2.615
 9584WAT     H142703   6.241   1.436   2.533
 9584WAT     H242704   6.106   1.465   2.594
 9585WAT      O42705   3.257   1.978  11.947
 9585WAT     H142706   3.188   2.019  11.896
 9585WAT     H242707   3.228   1.887  11.959
 9586WAT      O42708   2.921   0.579  12.022
 9586WAT     H142709   2.989   0.514  12.034
 9586WAT     H242710   2.852   0.555  12.084
 9587WAT      O42711   4.685   1.930   2.085
 9587WAT     H142712   4.778   1.915   2.104
 9587WAT     H242713   4.640   1.854   2.123
 9588WAT      O42714   4.341   0.115  11.461
 9588WAT     H142715   4.267   0.168  11.491
 9588WAT     H242716   4.329   0.030  11.503
 9589WAT      O42717   0.571   0.549   3.610
 9589WAT     H142718   0.635   0.481   3.629
 9589WAT     H242719   0.531   0.522   3.527
 9590WAT      O42720   0.305   5.056   0.136
 9590WAT     H142721   0.355   4.985   0.177
 9590WAT     H242722   0.341   5.136   0.174
 9591WAT      O42723   4.652   3.128   3.029
 9591WAT     H142724   4.573   3.162   3.070
 9591WAT     H242725   4.640   3.146   2.935
 9592WAT      O42726   1.659   5.625   9.769
 9592WAT     H142727   1.629   5.541   9.801
 9592WAT     H242728   1.589   5.687   9.792
 9593WAT      O42729   2.967   0.686   1.916
 9593WAT     H142730   2.964   0.639   1.833
 9593WAT     H242731   2.962   0.617   1.983
 9594WAT      O42732   5.144   5.188   2.028
 9594WAT     H142733   5.114   5.246   2.098
 9594WAT     H242734   5.222   5.145   2.065
 9595WAT      O42735   3.554   2.146   9.272
 9595WAT     H142736   3.594   2.228   9.298
 9595WAT     H242737   3.460   2.166   9.265
 9596WAT      O42738   1.576   3.447   1.072
 9596WAT     H142739   1.617   3.467   0.988
 9596WAT     H242740   1.568   3.531   1.117
 9597WAT      O42741   4.653   4.617   0.616
 9597WAT     H142742   4.692   4.705   0.616
 9597WAT     H242743   4.700   4.571   0.686
 9598WAT      O42744   2.075   1.481  11.631
 9598WAT     H142745   2.087   1.439  11.716
 9598WAT     H242746   1.981   1.474  11.614
 9599WAT      O42747   5.806   1.013   3.173
 9599WAT     H142748   5.803   1.016   3.078
 9599WAT     H242749   5.753   0.937   3.197
 9600WAT      O42750   1.576   3.820  11.984
 9600WAT     H142751   1.671   3.813  11.972
 9600WAT     H242752   1.546   3.730  11.998
 9601WAT      O42753   0.351   5.947   8.080
 9601WAT     H142754   0.290   5.924   8.010
 9601WAT     H242755   0.432   5.902   8.057
 9602WAT      O42756   5.951   3.490   9.187
 9602WAT     H142757   5.984   3.408   9.225
 9602WAT     H242758   5.982   3.487   9.096
 9603WAT      O42759   0.488   5.381   4.035
 9603WAT     H142760   0.396   5.407   4.035
 9603WAT     H242761   0.509   5.367   3.943
 9604WAT      O42762   2.644   5.833  11.146
 9604WAT     H142763   2.591   5.805  11.071
 9604WAT     H242764   2.580   5.862  11.211
 9605WAT      O42765   0.287   5.474   9.700
 9605WAT     H142766   0.199   5.445   9.675
 9605WAT     H242767   0.294   5.451   9.793
 9606WAT      O42768   5.590   3.283   8.973
 9606WAT     H142769   5.605   3.350   9.040
 9606WAT     H242770   5.675   3.271   8.931
 9607WAT      O42771   5.520   3.675  12.208
 9607WAT     H142772   5.448   3.715  12.161
 9607WAT     H242773   5.543   3.737  12.277
 9608WAT      O42774   2.486   4.394  10.303
 9608WAT     H142775   2.536   4.447  10.242
 9608WAT     H242776   2.548   4.370  10.372
 9609WAT      O42777   2.933   4.277   9.726
 9609WAT     H142778   2.935   4.206   9.790
 9609WAT     H242779   3.017   4.321   9.737
 9610WAT      O42780   2.090   1.427   0.138
 9610WAT     H142781   2.130   1.483   0.071
 9610WAT     H242782   2.077   1.485   0.213
 9611WAT      O42783   5.199   3.303   8.677
 9611WAT     H142784   5.293   3.293   8.695
 9611WAT     H242785   5.177   3.228   8.622
 9612WAT      O42786   4.469   1.138   0.731
 9612WAT     H142787   4.449   1.159   0.640
 9612WAT     H242788   4.390   1.162   0.780
 9613WAT      O42789   5.958   1.931  12.307
 9613WAT     H142790   5.923   1.920  12.218
 9613WAT     H242791   6.010   2.011  12.302
 9614WAT      O42792   3.840   0.905   3.609
 9614WAT     H142793   3.782   0.839   3.570
 9614WAT     H242794   3.828   0.982   3.553
 9615WAT      O42795   0.186   4.595   0.133
 9615WAT     H142796   0.238   4.658   0.084
 9615WAT     H242797   0.096   4.614   0.107
 9616WAT      O42798   1.758   0.393   9.462
 9616WAT     H142799   1.732   0.305   9.436
 9616WAT     H242800   1.717   0.407   9.547
 9617WAT      O42801   2.138   2.162  12.024
 9617WAT     H142802   2.102   2.212  12.096
 9617WAT     H242803   2.079   2.178  11.951
 9618WAT      O42804   2.570   2.860  11.134
 9618WAT     H142805   2.624   2.782  11.146
 9618WAT     H242806   2.480   2.829  11.143
 9619WAT      O42807   2.195   2.830   8.934
 9619WAT     H142808   2.251   2.844   9.011
 9619WAT     H242809   2.253   2.847   8.859
 9620WAT      O42810   0.952   4.527   2.822
 9620WAT     H142811   1.001   4.608   2.828
 9620WAT     H242812   0.985   4.484   2.743
 9621WAT      O42813   6.023   1.940   3.406
 9621WAT     H142814   5.954   1.976   3.462
 9621WAT     H242815   6.046   2.012   3.347
 9622WAT      O42816   0.159   2.899  11.834
 9622WAT     H142817   0.112   2.817  11.815
 9622WAT     H242818   0.204   2.920  11.752
 9623WAT      O42819   4.101   1.353   8.718
 9623WAT     H142820   4.059   1.341   8.804
 9623WAT     H242821   4.028   1.371   8.658
 9624WAT      O42822   1.653   5.367   3.555
 9624WAT     H142823   1.721   5.392   3.492
 9624WAT     H242824   1.688   5.393   3.640
 9625WAT      O42825   0.905   5.022   9.206
 9625WAT     H142826   0.958   4.981   9.275
 9625WAT     H242827   0.814   5.006   9.233
 9626WAT      O42828   3.575   1.976   3.889
 9626WAT     H142829   3.565   1.895   3.939
 9626WAT     H242830   3.499   2.029   3.912
 9627WAT      O42831   4.373   5.850   9.680
 9627WAT     H142832   4.320   5.880   9.754
 9627WAT     H242833   4.350   5.757   9.671
 9628WAT      O42834   4.531   6.117  10.600
 9628WAT     H142835   4.514   6.030  10.635
 9628WAT     H242836   4.479   6.175  10.655
 9629WAT      O42837   5.524   3.543   3.242
 9629WAT     H142838   5.540   3.459   3.285
 9629WAT     H242839   5.429   3.552   3.241
 9630WAT      O42840   5.317   1.458  12.684
 9630WAT     H142841   5.310   1.486  12.592
 9630WAT     H242842   5.398   1.407  12.687
 9631WAT      O42843   3.067   1.989  12.592
 9631WAT     H142844   3.105   1.961  12.509
 9631WAT     H242845   2.992   1.932  12.605
 9632WAT      O42846   2.723   3.936   8.295
 9632WAT     H142847   2.694   3.854   8.255
 9632WAT     H242848   2.712   4.001   8.226
 9633WAT      O42849   2.293   1.869   8.195
 9633WAT     H142850   2.237   1.820   8.254
 9633WAT     H242851   2.285   1.825   8.110
 9634WAT      O42852   1.530   3.011  10.453
 9634WAT     H142853   1.616   3.043  10.482
 9634WAT     H242854   1.516   3.055  10.369
 9635WAT      O42855   0.415   4.943  11.712
 9635WAT     H142856   0.499   4.932  11.667
 9635WAT     H242857   0.358   4.983  11.647
 9636WAT      O42858   4.163   3.268   8.982
 9636WAT     H142859   4.166   3.236   8.891
 9636WAT     H242860   4.094   3.334   8.982
 9637WAT      O42861   3.938   0.320   8.836
 9637WAT     H142862   3.996   0.306   8.910
 9637WAT     H242863   3.851   0.331   8.875
 9638WAT      O42864   1.712   0.050   2.554
 9638WAT     H142865   1.641   0.078   2.497
 9638WAT     H242866   1.787   0.101   2.526
 9639WAT      O42867   2.698   1.475   1.444
 9639WAT     H142868   2.721   1.412   1.375
 9639WAT     H242869   2.620   1.438   1.485
 9640WAT      O42870   4.882   3.922  10.070
 9640WAT     H142871   4.804   3.957  10.026
 9640WAT     H242872   4.910   3.994  10.127
 9641WAT      O42873   1.008   4.925  10.009
 9641WAT     H142874   1.069   4.991   9.976
 9641WAT     H242875   1.064   4.851  10.034
 9642WAT      O42876   4.589   3.622   3.775
 9642WAT     H142877   4.519   3.628   3.840
 9642WAT     H242878   4.588   3.707   3.731
 9643WAT      O42879   1.628   5.083   1.482
 9643WAT     H142880   1.704   5.025   1.475
 9643WAT     H242881   1.554   5.028   1.456
 9644WAT      O42882   4.756   1.612   8.728
 9644WAT     H142883   4.680   1.560   8.701
 9644WAT     H242884   4.724   1.702   8.734
 9645WAT      O42885   4.933   4.922   9.669
 9645WAT     H142886   4.870   4.866   9.623
 9645WAT     H242887   4.889   4.948   9.749
 9646WAT      O42888   3.859   3.013   3.321
 9646WAT     H142889   3.868   3.006   3.416
 9646WAT     H242890   3.814   3.096   3.307
 9647WAT      O42891   4.321   0.883  12.090
 9647WAT     H142892   4.279   0.802  12.118
 9647WAT     H242893   4.270   0.911  12.014
 9648WAT      O42894   4.410   3.581   2.124
 9648WAT     H142895   4.344   3.586   2.055
 9648WAT     H242896   4.396   3.496   2.165
 9649WAT      O42897   3.691   4.221   0.571
 9649WAT     H142898   3.639   4.180   0.640
 9649WAT     H242899   3.627   4.244   0.504
 9650WAT      O42900   4.242   3.569  12.472
 9650WAT     H142901   4.211   3.494  12.421
 9650WAT     H242902   4.191   3.643  12.440
 9651WAT      O42903   1.067   6.113   1.334
 9651WAT     H142904   1.001   6.172   1.297
 9651WAT     H242905   1.031   6.089   1.420
 9652WAT      O42906   6.102   5.333   5.090
 9652WAT     H142907   6.019   5.340   5.042
 9652WAT     H242908   6.090   5.257   5.146
 9653WAT      O42909   0.558   5.556  10.702
 9653WAT     H142910   0.650   5.566  10.674
 9653WAT     H242911   0.551   5.611  10.780
 9654WAT      O42912   0.256   0.171  11.428
 9654WAT     H142913   0.201   0.237  11.386
 9654WAT     H242914   0.335   0.218  11.455
 9655WAT      O42915   4.701   1.207  10.493
 9655WAT     H142916   4.622   1.171  10.535
 9655WAT     H242917   4.698   1.300  10.515
 9656WAT      O42918   1.971   5.392   4.635
 9656WAT     H142919   2.054   5.347   4.622
 9656WAT     H242920   1.980   5.436   4.720
 9657WAT      O42921   1.517   3.045   2.795
 9657WAT     H142922   1.601   3.041   2.749
 9657WAT     H242923   1.529   3.115   2.860
 9658WAT      O42924   0.609   4.776   7.890
 9658WAT     H142925   0.577   4.686   7.897
 9658WAT     H242926   0.601   4.811   7.979
 9659WAT      O42927   3.201   3.646   0.236
 9659WAT     H142928   3.262   3.645   0.309
 9659WAT     H242929   3.142   3.720   0.254
 9660WAT      O42930   0.936   1.413   1.051
 9660WAT     H142931   1.020   1.423   1.096
 9660WAT     H242932   0.940   1.476   0.979
 9661WAT      O42933   3.170   0.814   9.296
 9661WAT     H142934   3.112   0.784   9.226
 9661WAT     H242935   3.128   0.786   9.377
 9662WAT      O42936   2.104   4.309   7.975
 9662WAT     H142937   2.082   4.216   7.977
 9662WAT     H242938   2.195   4.313   8.005
 9663WAT      O42939   1.431   0.219   9.043
 9663WAT     H142940   1.510   0.171   9.018
 9663WAT     H242941   1.369   0.200   8.972
 9664WAT      O42942   5.027   3.033  10.684
 9664WAT     H142943   4.996   3.003  10.770
 9664WAT     H242944   4.957   3.009  10.623
 9665WAT      O42945   0.891   4.308   1.332
 9665WAT     H142946   0.964   4.314   1.393
 9665WAT     H242947   0.885   4.215   1.310
 9666WAT      O42948   2.920   4.395  10.844
 9666WAT     H142949   2.943   4.304  10.824
 9666WAT     H242950   2.972   4.417  10.921
 9667WAT      O42951   4.235   4.746   9.924
 9667WAT     H142952   4.213   4.834   9.953
 9667WAT     H242953   4.281   4.758   9.841
 9668WAT      O42954   0.816   5.797   1.739
 9668WAT     H142955   0.837   5.821   1.649
 9668WAT     H242956   0.765   5.716   1.731
 9669WAT      O42957   0.802   1.929  11.663
 9669WAT     H142958   0.849   1.983  11.599
 9669WAT     H242959   0.852   1.937  11.744
 9670WAT      O42960   0.507   0.908   0.901
 9670WAT     H142961   0.532   0.816   0.910
 9670WAT     H242962   0.488   0.937   0.991
 9671WAT      O42963   4.832   5.294  11.499
 9671WAT     H142964   4.914   5.343  11.497
 9671WAT     H242965   4.851   5.214  11.449
 9672WAT      O42966   1.671   2.759   8.886
 9672WAT     H142967   1.662   2.739   8.793
 9672WAT     H242968   1.690   2.853   8.889
 9673WAT      O42969   1.211   5.471   9.196
 9673WAT     H142970   1.285   5.529   9.181
 9673WAT     H242971   1.172   5.500   9.278
 9674WAT      O42972   2.306   3.007   9.384
 9674WAT     H142973   2.290   3.101   9.393
 9674WAT     H242974   2.350   2.998   9.299
 9675WAT      O42975   5.524   2.615  12.046
 9675WAT     H142976   5.534   2.521  12.029
 9675WAT     H242977   5.608   2.653  12.020
 9676WAT      O42978   4.301   3.564   8.837
 9676WAT     H142979   4.322   3.623   8.909
 9676WAT     H242980   4.310   3.476   8.873
 9677WAT      O42981   2.577   5.977   8.691
 9677WAT     H142982   2.622   5.893   8.687
 9677WAT     H242983   2.646   6.041   8.704
 9678WAT      O42984   3.569   0.977   2.981
 9678WAT     H142985   3.592   1.037   2.910
 9678WAT     H242986   3.545   1.034   3.054
 9679WAT      O42987   0.054   5.610  12.282
 9679WAT     H142988   0.008   5.541  12.329
 9679WAT     H242989   0.063   5.681  12.345
 9680WAT      O42990   6.029   2.023   3.804
 9680WAT     H142991   5.999   1.937   3.777
 9680WAT     H242992   6.123   2.023   3.785
 9681WAT      O42993   1.686   5.006   1.928
 9681WAT     H142994   1.626   5.061   1.978
 9681WAT     H242995   1.659   4.916   1.947
 9682WAT      O42996   1.173   0.577   3.336
 9682WAT     H142997   1.216   0.567   3.421
 9682WAT     H242998   1.089   0.619   3.357
 9683WAT      O42999   6.109   5.260  10.730
 9683WAT     H143000   6.139   5.350  10.729
 9683WAT     H243001   6.120   5.231  10.821
 9684WAT      O43002   4.296   1.562   3.582
 9684WAT     H143003   4.369   1.602   3.535
 9684WAT     H243004   4.334   1.529   3.663
 9685WAT      O43005   0.808   2.933   9.584
 9685WAT     H143006   0.813   2.899   9.495
 9685WAT     H243007   0.885   2.897   9.628
 9686WAT      O43008   4.277   0.742   2.213
 9686WAT     H143009   4.269   0.836   2.230
 9686WAT     H243010   4.211   0.702   2.269
 9687WAT      O43011   1.668   3.625   3.941
 9687WAT     H143012   1.691   3.692   4.005
 9687WAT     H243013   1.747   3.572   3.932
 9688WAT      O43014   3.917   4.434  10.091
 9688WAT     H143015   3.902   4.504  10.154
 9688WAT     H243016   3.849   4.445  10.025
 9689WAT      O43017   0.346   5.500  12.565
 9689WAT     H143018   0.321   5.483  12.474
 9689WAT     H243019   0.416   5.437  12.583
 9690WAT      O43020   1.831   5.409   0.675
 9690WAT     H143021   1.831   5.348   0.600
 9690WAT     H243022   1.799   5.357   0.748
 9691WAT      O43023   4.109   2.838  11.753
 9691WAT     H143024   4.077   2.775  11.688
 9691WAT     H243025   4.107   2.922  11.707
 9692WAT      O43026   5.913   4.038   3.673
 9692WAT     H143027   5.883   4.107   3.732
 9692WAT     H243028   5.908   3.958   3.726
 9693WAT      O43029   5.079   1.832   1.100
 9693WAT     H143030   5.041   1.744   1.105
 9693WAT     H243031   5.061   1.870   1.186
 9694WAT      O43032   2.843   1.617   3.667
 9694WAT     H143033   2.867   1.630   3.576
 9694WAT     H243034   2.769   1.676   3.681
 9695WAT      O43035   3.353   5.172   2.090
 9695WAT     H143036   3.439   5.206   2.064
 9695WAT     H243037   3.323   5.122   2.014
 9696WAT      O43038   5.764   0.471   2.292
 9696WAT     H143039   5.840   0.441   2.341
 9696WAT     H243040   5.709   0.393   2.283
 9697WAT      O43041   6.184   2.222  11.965
 9697WAT     H143042   6.179   2.277  11.888
 9697WAT     H243043   6.143   2.139  11.939
 9698WAT      O43044   5.831   5.803   3.280
 9698WAT     H143045   5.849   5.864   3.351
 9698WAT     H243046   5.816   5.859   3.204
 9699WAT      O43047   4.699   1.286  11.077
 9699WAT     H143048   4.765   1.343  11.117
 9699WAT     H243049   4.616   1.332  11.091
 9700WAT      O43050   3.280   0.794   0.615
 9700WAT     H143051   3.243   0.707   0.633
 9700WAT     H243052   3.354   0.778   0.557
 9701WAT      O43053   0.291   1.434   0.207
 9701WAT     H143054   0.342   1.357   0.229
 9701WAT     H243055   0.209   1.399   0.170
 9702WAT      O43056   5.438   5.064   0.200
 9702WAT     H143057   5.350   5.087   0.229
 9702WAT     H243058   5.435   4.970   0.186
 9703WAT      O43059   0.141   3.830   9.636
 9703WAT     H143060   0.079   3.770   9.594
 9703WAT     H243061   0.224   3.815   9.591
 9704WAT      O43062   2.459   2.300  12.386
 9704WAT     H143063   2.383   2.317  12.330
 9704WAT     H243064   2.447   2.360  12.460
 9705WAT      O43065   3.680   2.119   2.135
 9705WAT     H143066   3.720   2.092   2.053
 9705WAT     H243067   3.731   2.196   2.162
 9706WAT      O43068   3.715   1.073   1.411
 9706WAT     H143069   3.733   1.151   1.464
 9706WAT     H243070   3.719   1.000   1.473
 9707WAT      O43071   5.214   2.597   7.554
 9707WAT     H143072   5.139   2.540   7.573
 9707WAT     H243073   5.196   2.676   7.605
 9708WAT      O43074   1.651   2.741   3.558
 9708WAT     H143075   1.677   2.733   3.650
 9708WAT     H243076   1.719   2.796   3.519
 9709WAT      O43077   2.567   2.044  12.162
 9709WAT     H143078   2.519   2.068  12.242
 9709WAT     H243079   2.651   2.089  12.170
 9710WAT      O43080   1.964   2.080   3.288
 9710WAT     H143081   1.871   2.078   3.312
 9710WAT     H243082   1.978   2.170   3.258
 9711WAT      O43083   4.954   4.637   9.501
 9711WAT     H143084   4.866   4.610   9.478
 9711WAT     H243085   5.010   4.565   9.471
 9712WAT      O43086   4.320   3.715  10.993
 9712WAT     H143087   4.340   3.781  10.926
 9712WAT     H243088   4.225   3.722  11.005
 9713WAT      O43089   2.990   2.181   0.858
 9713WAT     H143090   3.060   2.230   0.899
 9713WAT     H243091   2.939   2.247   0.811
 9714WAT      O43092   0.051   5.007   2.485
 9714WAT     H143093   0.138   4.970   2.496
 9714WAT     H243094   0.042   5.070   2.557
 9715WAT      O43095   3.745   0.451  12.140
 9715WAT     H143096   3.684   0.379  12.126
 9715WAT     H243097   3.690   0.528  12.151
 9716WAT      O43098   5.411   4.540  11.280
 9716WAT     H143099   5.386   4.605  11.346
 9716WAT     H243100   5.331   4.491  11.263
 9717WAT      O43101   1.168   0.065   2.907
 9717WAT     H143102   1.130   0.039   2.990
 9717WAT     H243103   1.218   0.145   2.927
 9718WAT      O43104   0.180   1.417  10.897
 9718WAT     H143105   0.235   1.339  10.900
 9718WAT     H243106   0.238   1.488  10.925
 9719WAT      O43107   5.922   2.899  10.605
 9719WAT     H143108   5.878   2.816  10.616
 9719WAT     H243109   5.860   2.953  10.556
 9720WAT      O43110   5.392   0.470   9.952
 9720WAT     H143111   5.423   0.411  10.021
 9720WAT     H243112   5.469   0.521   9.927
 9721WAT      O43113   3.822   0.119   9.404
 9721WAT     H143114   3.878   0.189   9.371
 9721WAT     H243115   3.797   0.069   9.327
 9722WAT      O43116   0.955   2.895   7.831
 9722WAT     H143117   0.896   2.967   7.807
 9722WAT     H243118   0.899   2.833   7.878
 9723WAT      O43119   5.914   5.550  12.061
 9723WAT     H143120   5.960   5.566  11.978
 9723WAT     H243121   5.904   5.455  12.064
 9724WAT      O43122   5.517   0.320   8.825
 9724WAT     H143123   5.562   0.373   8.759
 9724WAT     H243124   5.488   0.383   8.890
 9725WAT      O43125   3.009   0.820  11.070
 9725WAT     H143126   2.988   0.913  11.075
 9725WAT     H243127   3.091   0.811  11.118
 9726WAT      O43128   1.668   6.132   3.234
 9726WAT     H143129   1.581   6.147   3.271
 9726WAT     H243130   1.680   6.204   3.171
 9727WAT      O43131   5.165   4.479   3.477
 9727WAT     H143132   5.084   4.431   3.459
 9727WAT     H243133   5.209   4.483   3.392
 9728WAT      O43134   3.757   2.928   0.250
 9728WAT     H143135   3.800   2.930   0.165
 9728WAT     H243136   3.685   2.866   0.239
 9729WAT      O43137   2.863   1.549  11.262
 9729WAT     H143138   2.814   1.556  11.181
 9729WAT     H243139   2.818   1.481  11.312
 9730WAT      O43140   1.420   0.322   2.740
 9730WAT     H143141   1.446   0.231   2.724
 9730WAT     H243142   1.341   0.335   2.687
 9731WAT      O43143   4.527   1.865   0.888
 9731WAT     H143144   4.490   1.808   0.956
 9731WAT     H243145   4.622   1.854   0.896
 9732WAT      O43146   5.862   2.814   8.847
 9732WAT     H143147   5.807   2.891   8.838
 9732WAT     H243148   5.819   2.747   8.793
 9733WAT      O43149   1.623   3.951   0.623
 9733WAT     H143150   1.707   3.906   0.615
 9733WAT     H243151   1.647   4.042   0.640
 9734WAT      O43152   0.144   0.126   8.358
 9734WAT     H143153   0.198   0.050   8.336
 9734WAT     H243154   0.057   0.089   8.373
 9735WAT      O43155   1.730   4.963   2.696
 9735WAT     H143156   1.704   5.009   2.776
 9735WAT     H243157   1.822   4.939   2.712
 9736WAT      O43158   4.812   2.439  10.003
 9736WAT     H143159   4.798   2.531  10.025
 9736WAT     H243160   4.815   2.437   9.908
 9737WAT      O43161   1.241   4.932   4.193
 9737WAT     H143162   1.234   4.938   4.097
 9737WAT     H243163   1.150   4.933   4.224
 9738WAT      O43164   4.521   2.501  12.127
 9738WAT     H143165   4.455   2.566  12.104
 9738WAT     H243166   4.570   2.540  12.199
 9739WAT      O43167   5.792   2.152  11.162
 9739WAT     H143168   5.866   2.132  11.104
 9739WAT     H243169   5.797   2.084  11.230
 9740WAT      O43170   1.600  -0.013   0.093
 9740WAT     H143171   1.565   0.018   0.010
 9740WAT     H243172   1.621   0.066   0.142
 9741WAT      O43173   1.434   1.894   0.516
 9741WAT     H143174   1.465   1.889   0.606
 9741WAT     H243175   1.485   1.965   0.477
 9742WAT      O43176   2.137   6.240   3.016
 9742WAT     H143177   2.060   6.202   2.973
 9742WAT     H243178   2.159   6.176   3.084
 9743WAT      O43179   3.245   5.002   2.404
 9743WAT     H143180   3.221   5.003   2.312
 9743WAT     H243181   3.163   4.989   2.451
 9744WAT      O43182   3.089   0.861  10.784
 9744WAT     H143183   3.032   0.853  10.861
 9744WAT     H243184   3.103   0.771  10.755
 9745WAT      O43185   1.374   2.128  11.627
 9745WAT     H143186   1.404   2.069  11.697
 9745WAT     H243187   1.337   2.070  11.560
 9746WAT      O43188   4.357   2.597   2.838
 9746WAT     H143189   4.409   2.677   2.845
 9746WAT     H243190   4.406   2.542   2.776
 9747WAT      O43191   4.950   4.893  11.821
 9747WAT     H143192   4.945   4.798  11.822
 9747WAT     H243193   4.953   4.918  11.913
 9748WAT      O43194   6.048   4.640  10.455
 9748WAT     H143195   5.985   4.568  10.454
 9748WAT     H243196   6.133   4.599  10.437
 9749WAT      O43197   3.258   1.987   8.734
 9749WAT     H143198   3.313   2.021   8.804
 9749WAT     H243199   3.319   1.957   8.667
 9750WAT      O43200   0.413   5.958   3.423
 9750WAT     H143201   0.462   5.876   3.431
 9750WAT     H243202   0.338   5.947   3.481
 9751WAT      O43203   4.879   0.608  12.251
 9751WAT     H143204   4.965   0.606  12.211
 9751WAT     H243205   4.829   0.670  12.199
 9752WAT      O43206   1.760   5.584   4.078
 9752WAT     H143207   1.855   5.587   4.065
 9752WAT     H243208   1.749   5.536   4.161
 9753WAT      O43209   1.679   0.954   4.686
 9753WAT     H143210   1.615   1.024   4.675
 9753WAT     H243211   1.740   0.965   4.614
 9754WAT      O43212   4.637   0.445   7.808
 9754WAT     H143213   4.627   0.467   7.715
 9754WAT     H243214   4.690   0.516   7.844
 9755WAT      O43215   0.198   0.355  10.006
 9755WAT     H143216   0.291   0.377  10.015
 9755WAT     H243217   0.166   0.346  10.095
 9756WAT      O43218   3.041   0.133   3.797
 9756WAT     H143219   3.052   0.113   3.890
 9756WAT     H243220   3.109   0.198   3.778
 9757WAT      O43221   4.048   3.456  10.934
 9757WAT     H143222   4.129   3.426  10.975
 9757WAT     H243223   4.058   3.551  10.930
 9758WAT      O43224   5.464   3.543   0.354
 9758WAT     H143225   5.426   3.545   0.266
 9758WAT     H243226   5.535   3.608   0.351
 9759WAT      O43227   3.353   1.165   3.971
 9759WAT     H143228   3.317   1.220   4.040
 9759WAT     H243229   3.372   1.081   4.013
 9760WAT      O43230   3.255   3.375  12.023
 9760WAT     H143231   3.341   3.417  12.028
 9760WAT     H243232   3.194   3.448  12.007
 9761WAT      O43233   1.908   0.093  12.170
 9761WAT     H143234   1.999   0.094  12.199
 9761WAT     H243235   1.865   0.030  12.228
 9762WAT      O43236   4.815   1.981  10.316
 9762WAT     H143237   4.857   1.998  10.232
 9762WAT     H243238   4.885   1.991  10.380
 9763WAT      O43239   3.578   4.290  10.766
 9763WAT     H143240   3.519   4.262  10.836
 9763WAT     H243241   3.584   4.385  10.777
 9764WAT      O43242   2.545   5.177   9.057
 9764WAT     H143243   2.514   5.107   9.113
 9764WAT     H243244   2.467   5.208   9.011
 9765WAT      O43245   4.002   1.239  10.443
 9765WAT     H143246   3.909   1.256  10.427
 9765WAT     H243247   4.036   1.321  10.478
 9766WAT      O43248   0.334   1.330   2.276
 9766WAT     H143249   0.334   1.353   2.183
 9766WAT     H243250   0.424   1.301   2.293
 9767WAT      O43251   5.651   5.194   0.281
 9767WAT     H143252   5.710   5.119   0.272
 9767WAT     H243253   5.564   5.159   0.263
 9768WAT      O43254   2.099   4.794  10.456
 9768WAT     H143255   2.190   4.802  10.428
 9768WAT     H243256   2.101   4.724  10.522
 9769WAT      O43257   4.512   3.259  10.889
 9769WAT     H143258   4.530   3.348  10.859
 9769WAT     H243259   4.565   3.203  10.833
 9770WAT      O43260   5.513   1.647  11.896
 9770WAT     H143261   5.563   1.652  11.815
 9770WAT     H243262   5.474   1.559  11.895
 9771WAT      O43263   4.121   4.456   8.655
 9771WAT     H143264   4.197   4.418   8.699
 9771WAT     H243265   4.084   4.517   8.718
 9772WAT      O43266   5.209   4.963  10.792
 9772WAT     H143267   5.298   4.930  10.803
 9772WAT     H243268   5.196   5.024  10.864
 9773WAT      O43269   5.047   4.046   8.293
 9773WAT     H143270   4.967   3.994   8.303
 9773WAT     H243271   5.100   3.996   8.231
 9774WAT      O43272   1.268   1.110  12.302
 9774WAT     H143273   1.297   1.157  12.224
 9774WAT     H243274   1.259   1.019  12.273
 9775WAT      O43275   1.846   3.073   1.266
 9775WAT     H143276   1.866   3.030   1.183
 9775WAT     H243277   1.777   3.136   1.245
 9776WAT      O43278   3.693   6.124  11.524
 9776WAT     H143279   3.658   6.128  11.435
 9776WAT     H243280   3.616   6.130  11.581
 9777WAT      O43281   6.225   3.348  11.319
 9777WAT     H143282   6.208   3.256  11.298
 9777WAT     H243283   6.212   3.354  11.413
 9778WAT      O43284   5.207   6.147   2.735
 9778WAT     H143285   5.278   6.182   2.681
 9778WAT     H243286   5.246   6.134   2.821
 9779WAT      O43287   6.094   5.144  12.059
 9779WAT     H143288   6.019   5.184  12.102
 9779WAT     H243289   6.149   5.112  12.130
 9780WAT      O43290   4.475   3.965   9.191
 9780WAT     H143291   4.521   3.881   9.188
 9780WAT     H243292   4.413   3.957   9.264
 9781WAT      O43293   3.707   1.573  12.604
 9781WAT     H143294   3.803   1.575  12.600
 9781WAT     H243295   3.686   1.485  12.635
 9782WAT      O43296   2.250   6.028   9.316
 9782WAT     H143297   2.243   5.936   9.293
 9782WAT     H243298   2.266   6.073   9.233
 9783WAT      O43299   0.963   3.897   3.887
 9783WAT     H143300   0.892   3.949   3.851
 9783WAT     H243301   0.947   3.808   3.855
 9784WAT      O43302   4.272   1.125   3.547
 9784WAT     H143303   4.316   1.042   3.567
 9784WAT     H243304   4.188   1.099   3.511
 9785WAT      O43305   3.012   3.850  10.243
 9785WAT     H143306   2.920   3.831  10.264
 9785WAT     H243307   3.060   3.823  10.322
 9786WAT      O43308   6.002   4.463  11.808
 9786WAT     H143309   5.987   4.462  11.713
 9786WAT     H243310   5.951   4.390  11.841
 9787WAT      O43311   0.704   0.307   9.557
 9787WAT     H143312   0.729   0.279   9.469
 9787WAT     H243313   0.697   0.402   9.551
 9788WAT      O43314   4.078   3.333   9.651
 9788WAT     H143315   4.162   3.288   9.648
 9788WAT     H243316   4.031   3.291   9.723
 9789WAT      O43317   2.886   2.629   8.574
 9789WAT     H143318   2.913   2.578   8.497
 9789WAT     H243319   2.806   2.586   8.604
 9790WAT      O43320   3.642   1.879   9.714
 9790WAT     H143321   3.718   1.876   9.655
 9790WAT     H243322   3.579   1.935   9.670
 9791WAT      O43323   5.928   1.488  10.988
 9791WAT     H143324   5.977   1.452  10.914
 9791WAT     H243325   5.947   1.582  10.986
 9792WAT      O43326   2.627   5.063   3.107
 9792WAT     H143327   2.591   5.150   3.089
 9792WAT     H243328   2.722   5.075   3.101
 9793WAT      O43329   4.312   5.809   0.215
 9793WAT     H143330   4.288   5.790   0.124
 9793WAT     H243331   4.312   5.723   0.258
 9794WAT      O43332   1.681   0.586   0.423
 9794WAT     H143333   1.598   0.611   0.464
 9794WAT     H243334   1.683   0.490   0.430
 9795WAT      O43335   4.248   4.942  12.513
 9795WAT     H143336   4.237   4.848  12.494
 9795WAT     H243337   4.252   4.946  12.608
 9796WAT      O43338   4.066   4.840   2.422
 9796WAT     H143339   4.117   4.868   2.498
 9796WAT     H243340   4.012   4.916   2.401
 9797WAT      O43341   3.579   5.480  12.357
 9797WAT     H143342   3.664   5.484  12.400
 9797WAT     H243343   3.583   5.401  12.303
 9798WAT      O43344   2.279   5.785   4.978
 9798WAT     H143345   2.229   5.800   4.898
 9798WAT     H243346   2.219   5.738   5.036
 9799WAT      O43347   3.229   5.886   7.972
 9799WAT     H143348   3.189   5.816   7.920
 9799WAT     H243349   3.307   5.911   7.923
 9800WAT      O43350   1.418   2.521  10.874
 9800WAT     H143351   1.340   2.472  10.900
 9800WAT     H243352   1.436   2.578  10.948
 9801WAT      O43353   4.698   5.784  11.892
 9801WAT     H143354   4.629   5.742  11.840
 9801WAT     H243355   4.652   5.851  11.943
 9802WAT      O43356   1.569   0.738   4.110
 9802WAT     H143357   1.611   0.680   4.047
 9802WAT     H243358   1.620   0.819   4.106
 9803WAT      O43359   1.620   4.847   8.545
 9803WAT     H143360   1.551   4.787   8.517
 9803WAT     H243361   1.683   4.791   8.592
 9804WAT      O43362   3.724   4.751   3.499
 9804WAT     H143363   3.796   4.689   3.511
 9804WAT     H243364   3.668   4.737   3.575
 9805WAT      O43365   4.625   3.968   3.147
 9805WAT     H143366   4.691   4.023   3.106
 9805WAT     H243367   4.542   3.998   3.110
 9806WAT      O43368   4.497   5.095   9.421
 9806WAT     H143369   4.580   5.114   9.378
 9806WAT     H243370   4.518   5.095   9.514
 9807WAT      O43371   2.253   4.832   9.922
 9807WAT     H143372   2.287   4.791  10.002
 9807WAT     H243373   2.233   4.922   9.949
 9808WAT      O43374   3.887   0.056   0.482
 9808WAT     H143375   3.906   0.079   0.573
 9808WAT     H243376   3.931  -0.028   0.469
 9809WAT      O43377   3.788   0.382   1.521
 9809WAT     H143378   3.782   0.291   1.550
 9809WAT     H243379   3.771   0.434   1.599
 9810WAT      O43380   2.829   0.145   2.859
 9810WAT     H143381   2.849   0.116   2.770
 9810WAT     H243382   2.880   0.225   2.870
 9811WAT      O43383   5.378   1.895   0.348
 9811WAT     H143384   5.359   1.987   0.362
 9811WAT     H243385   5.469   1.893   0.319
 9812WAT      O43386   4.440   3.349  10.030
 9812WAT     H143387   4.399   3.275   9.985
 9812WAT     H243388   4.533   3.341  10.009
 9813WAT      O43389   1.005   2.968   1.821
 9813WAT     H143390   0.967   2.917   1.893
 9813WAT     H243391   1.049   2.903   1.766
 9814WAT      O43392   2.423   2.584  10.565
 9814WAT     H143393   2.495   2.540  10.611
 9814WAT     H243394   2.344   2.558  10.613
 9815WAT      O43395   0.718   2.900   9.095
 9815WAT     H143396   0.723   2.906   9.000
 9815WAT     H243397   0.768   2.976   9.126
 9816WAT      O43398   3.324   5.050   0.399
 9816WAT     H143399   3.327   5.107   0.475
 9816WAT     H243400   3.328   4.962   0.434
 9817WAT      O43401   0.366   3.836   1.415
 9817WAT     H143402   0.331   3.789   1.339
 9817WAT     H243403   0.295   3.896   1.440
 9818WAT      O43404   1.606   2.140   1.242
 9818WAT     H143405   1.598   2.047   1.264
 9818WAT     H243406   1.694   2.149   1.206
 9819WAT      O43407   3.097   5.015   0.233
 9819WAT     H143408   3.174   5.008   0.289
 9819WAT     H243409   3.119   5.084   0.171
 9820WAT      O43410   0.458   1.617  11.386
 9820WAT     H143411   0.527   1.581  11.441
 9820WAT     H243412   0.440   1.548  11.321
 9821WAT      O43413   3.255   4.435  11.203
 9821WAT     H143414   3.267   4.433  11.297
 9821WAT     H243415   3.160   4.429  11.191
 9822WAT      O43416   3.042   3.735   3.851
 9822WAT     H143417   3.105   3.739   3.779
 9822WAT     H243418   3.043   3.824   3.888
 9823WAT      O43419   6.187   0.826  10.215
 9823WAT     H143420   6.120   0.760  10.198
 9823WAT     H243421   6.205   0.865  10.129
 9824WAT      O43422   2.459   0.082   3.868
 9824WAT     H143423   2.521   0.025   3.822
 9824WAT     H243424   2.421   0.027   3.936
 9825WAT      O43425   1.792   4.679  11.063
 9825WAT     H143426   1.752   4.686  10.976
 9825WAT     H243427   1.760   4.596  11.097
 9826WAT      O43428   2.707   3.272   2.611
 9826WAT     H143429   2.787   3.230   2.581
 9826WAT     H243430   2.715   3.363   2.584
 9827WAT      O43431   2.018   1.263  11.429
 9827WAT     H143432   2.094   1.314  11.459
 9827WAT     H243433   1.954   1.328  11.402
 9828WAT      O43434   2.049   2.545  10.181
 9828WAT     H143435   2.038   2.469  10.238
 9828WAT     H243436   2.029   2.513  10.093
 9829WAT      O43437   2.255   5.856   0.039
 9829WAT     H143438   2.175   5.814   0.072
 9829WAT     H243439   2.323   5.789   0.048
 9830WAT      O43440   5.030   3.386   1.484
 9830WAT     H143441   5.015   3.301   1.526
 9830WAT     H243442   5.125   3.394   1.479
 9831WAT      O43443   1.413   2.339   8.686
 9831WAT     H143444   1.448   2.397   8.619
 9831WAT     H243445   1.489   2.311   8.737
 9832WAT      O43446   2.018   2.250  10.228
 9832WAT     H143447   2.051   2.181  10.170
 9832WAT     H243448   1.949   2.207  10.279
 9833WAT      O43449   3.842   0.242  10.506
 9833WAT     H143450   3.797   0.193  10.437
 9833WAT     H243451   3.786   0.232  10.583
 9834WAT      O43452   6.176   4.477   0.845
 9834WAT     H143453   6.131   4.424   0.910
 9834WAT     H243454   6.116   4.550   0.828
 9835WAT      O43455   5.325   1.283   8.666
 9835WAT     H143456   5.325   1.325   8.752
 9835WAT     H243457   5.329   1.189   8.686
 9836WAT      O43458   4.714  -0.001   8.889
 9836WAT     H143459   4.671  -0.075   8.847
 9836WAT     H243460   4.667   0.076   8.857
 9837WAT      O43461   4.421   5.008   4.338
 9837WAT     H143462   4.414   4.986   4.431
 9837WAT     H243463   4.452   5.099   4.337
 9838WAT      O43464   5.134   0.579  12.182
 9838WAT     H143465   5.130   0.542  12.094
 9838WAT     H243466   5.227   0.579  12.205
 9839WAT      O43467   5.859   3.565   9.773
 9839WAT     H143468   5.797   3.496   9.750
 9839WAT     H243469   5.821   3.605   9.852
 9840WAT      O43470   2.439   2.352   3.317
 9840WAT     H143471   2.381   2.277   3.332
 9840WAT     H243472   2.508   2.343   3.383
 9841WAT      O43473   0.669   5.827   3.952
 9841WAT     H143474   0.583   5.826   3.909
 9841WAT     H243475   0.685   5.920   3.970
 9842WAT      O43476   4.774   3.563   7.624
 9842WAT     H143477   4.710   3.505   7.667
 9842WAT     H243478   4.809   3.510   7.552
 9843WAT      O43479   1.049   3.785   2.388
 9843WAT     H143480   0.962   3.766   2.423
 9843WAT     H243481   1.035   3.798   2.294
 9844WAT      O43482   5.665   1.399  11.260
 9844WAT     H143483   5.713   1.317  11.245
 9844WAT     H243484   5.652   1.402  11.355
 9845WAT      O43485   1.853   2.168   2.539
 9845WAT     H143486   1.762   2.162   2.512
 9845WAT     H243487   1.903   2.155   2.458
 9846WAT      O43488   4.383   1.725   0.515
 9846WAT     H143489   4.288   1.729   0.512
 9846WAT     H243490   4.411   1.775   0.438
 9847WAT      O43491   5.785   0.123   8.275
 9847WAT     H143492   5.728   0.096   8.203
 9847WAT     H243493   5.749   0.078   8.352
 9848WAT      O43494   0.578   3.175   7.832
 9848WAT     H143495   0.572   3.219   7.917
 9848WAT     H243496   0.503   3.207   7.783
 9849WAT      O43497   1.106   1.710   8.849
 9849WAT     H143498   1.013   1.687   8.840
 9849WAT     H243499   1.126   1.696   8.941
 9850WAT      O43500   5.826   2.208   3.912
 9850WAT     H143501   5.906   2.171   3.876
 9850WAT     H243502   5.757   2.148   3.883
 9851WAT      O43503   0.116   1.543  10.404
 9851WAT     H143504   0.024   1.568  10.409
 9851WAT     H243505   0.139   1.519  10.493
 9852WAT      O43506   0.187   1.412  11.902
 9852WAT     H143507   0.142   1.474  11.845
 9852WAT     H243508   0.197   1.458  11.985
 9853WAT      O43509   1.832   1.095  11.126
 9853WAT     H143510   1.907   1.149  11.101
 9853WAT     H243511   1.757   1.139  11.087
 9854WAT      O43512   3.664   5.087  12.466
 9854WAT     H143513   3.618   5.005  12.451
 9854WAT     H243514   3.640   5.112  12.555
 9855WAT      O43515   4.148   1.342  11.965
 9855WAT     H143516   4.170   1.361  11.873
 9855WAT     H243517   4.230   1.311  12.003
 9856WAT      O43518   0.910   2.124   2.135
 9856WAT     H143519   0.931   2.205   2.181
 9856WAT     H243520   0.990   2.072   2.140
 9857WAT      O43521   5.649   5.764   0.188
 9857WAT     H143522   5.687   5.798   0.106
 9857WAT     H243523   5.721   5.717   0.229
 9858WAT      O43524   3.631   6.096   1.469
 9858WAT     H143525   3.637   6.043   1.549
 9858WAT     H243526   3.634   6.186   1.501
 9859WAT      O43527   1.736   0.712   7.622
 9859WAT     H143528   1.730   0.780   7.689
 9859WAT     H243529   1.830   0.696   7.613
 9860WAT      O43530   5.753   2.604   8.500
 9860WAT     H143531   5.806   2.538   8.456
 9860WAT     H243532   5.687   2.628   8.436
 9861WAT      O43533   5.059   2.947   0.122
 9861WAT     H143534   5.086   3.002   0.195
 9861WAT     H243535   4.973   2.914   0.146
 9862WAT      O43536   2.076   3.878   3.486
 9862WAT     H143537   2.120   3.811   3.435
 9862WAT     H243538   2.088   3.850   3.577
 9863WAT      O43539   0.436   3.818  11.980
 9863WAT     H143540   0.426   3.773  12.064
 9863WAT     H243541   0.431   3.748  11.915
 9864WAT      O43542   3.151   4.730   0.649
 9864WAT     H143543   3.102   4.678   0.584
 9864WAT     H243544   3.197   4.796   0.597
 9865WAT      O43545   1.648   2.827   4.229
 9865WAT     H143546   1.700   2.784   4.297
 9865WAT     H243547   1.567   2.777   4.226
 9866WAT      O43548   4.452   3.848   0.576
 9866WAT     H143549   4.453   3.779   0.510
 9866WAT     H243550   4.473   3.803   0.658
 9867WAT      O43551   0.806   5.473   8.798
 9867WAT     H143552   0.717   5.440   8.801
 9867WAT     H243553   0.797   5.566   8.776
 9868WAT      O43554   5.639   4.754  10.473
 9868WAT     H143555   5.569   4.730  10.412
 9868WAT     H243556   5.601   4.737  10.559
 9869WAT      O43557   5.671   3.454   0.105
 9869WAT     H143558   5.680   3.454   0.010
 9869WAT     H243559   5.580   3.478   0.121
 9870WAT      O43560   0.713   0.305   4.957
 9870WAT     H143561   0.752   0.268   5.036
 9870WAT     H243562   0.769   0.379   4.933
 9871WAT      O43563   4.241   5.301  12.352
 9871WAT     H143564   4.188   5.344  12.419
 9871WAT     H243565   4.177   5.257  12.295
 9872WAT      O43566   0.388   1.400   7.183
 9872WAT     H143567   0.399   1.328   7.245
 9872WAT     H243568   0.324   1.368   7.119
 9873WAT      O43569   1.909   5.705   3.291
 9873WAT     H143570   1.895   5.633   3.352
 9873WAT     H243571   1.881   5.670   3.206
 9874WAT      O43572   5.795   2.358   0.660
 9874WAT     H143573   5.748   2.295   0.714
 9874WAT     H243574   5.830   2.422   0.723
 9875WAT      O43575   2.724   4.306   1.311
 9875WAT     H143576   2.774   4.328   1.390
 9875WAT     H243577   2.721   4.210   1.310
 9876WAT      O43578   4.848   3.399   7.419
 9876WAT     H143579   4.923   3.342   7.431
 9876WAT     H243580   4.772   3.341   7.426
 9877WAT      O43581   2.936   4.082   8.977
 9877WAT     H143582   2.849   4.081   8.938
 9877WAT     H243583   2.979   4.159   8.939
 9878WAT      O43584   2.186   3.604   2.263
 9878WAT     H143585   2.273   3.604   2.303
 9878WAT     H243586   2.149   3.689   2.287
 9879WAT      O43587   5.467   0.425   2.780
 9879WAT     H143588   5.490   0.451   2.691
 9879WAT     H243589   5.406   0.493   2.809
 9880WAT      O43590   5.390   3.718   1.496
 9880WAT     H143591   5.396   3.813   1.484
 9880WAT     H243592   5.457   3.682   1.438
 9881WAT      O43593   4.400   4.265  10.666
 9881WAT     H143594   4.342   4.329  10.625
 9881WAT     H243595   4.426   4.207  10.594
 9882WAT      O43596   3.207   1.103   1.582
 9882WAT     H143597   3.144   1.175   1.579
 9882WAT     H243598   3.153   1.024   1.588
 9883WAT      O43599   4.001   5.365   9.867
 9883WAT     H143600   4.076   5.424   9.878
 9883WAT     H243601   3.962   5.390   9.783
 9884WAT      O43602   4.677   1.842  10.525
 9884WAT     H143603   4.694   1.885  10.609
 9884WAT     H243604   4.745   1.875  10.466
 9885WAT      O43605   1.899   1.481  11.371
 9885WAT     H143606   1.805   1.481  11.356
 9885WAT     H243607   1.937   1.486  11.283
 9886WAT      O43608   4.593   4.489   3.918
 9886WAT     H143609   4.594   4.584   3.912
 9886WAT     H243610   4.596   4.459   3.827
 9887WAT      O43611   0.365   4.255   3.722
 9887WAT     H143612   0.327   4.332   3.763
 9887WAT     H243613   0.337   4.182   3.777
 9888WAT      O43614   3.517   0.032   1.696
 9888WAT     H143615   3.443   0.093   1.692
 9888WAT     H243616   3.531   0.017   1.790
 9889WAT      O43617   0.793   1.888   0.523
 9889WAT     H143618   0.774   1.859   0.612
 9889WAT     H243619   0.711   1.925   0.492
 9890WAT      O43620   1.091   2.813   9.659
 9890WAT     H143621   1.048   2.758   9.593
 9890WAT     H243622   1.131   2.752   9.719
 9891WAT      O43623   1.482   2.423   8.124
 9891WAT     H143624   1.482   2.370   8.204
 9891WAT     H243625   1.573   2.418   8.093
 9892WAT      O43626   3.045   4.057   1.076
 9892WAT     H143627   3.040   4.055   1.172
 9892WAT     H243628   2.958   4.030   1.047
 9893WAT      O43629   0.724   0.564  10.559
 9893WAT     H143630   0.686   0.537  10.476
 9893WAT     H243631   0.780   0.491  10.585
 9894WAT      O43632   1.367   0.395   9.290
 9894WAT     H143633   1.390   0.351   9.372
 9894WAT     H243634   1.399   0.337   9.222
 9895WAT      O43635   4.893   3.514   0.235
 9895WAT     H143636   4.867   3.587   0.179
 9895WAT     H243637   4.816   3.496   0.289
 9896WAT      O43638   6.128   0.156   0.667
 9896WAT     H143639   6.215   0.180   0.637
 9896WAT     H243640   6.113   0.068   0.631
 9897WAT      O43641   6.178   3.655   2.900
 9897WAT     H143642   6.167   3.565   2.931
 9897WAT     H243643   6.249   3.691   2.954
 9898WAT      O43644   4.825   4.880  11.053
 9898WAT     H143645   4.883   4.860  10.980
 9898WAT     H243646   4.736   4.873  11.017
 9899WAT      O43647   1.372   2.988   9.929
 9899WAT     H143648   1.316   3.004  10.005
 9899WAT     H243649   1.430   2.916   9.958
 9900WAT      O43650   1.537   1.147   4.604
 9900WAT     H143651   1.573   1.169   4.518
 9900WAT     H243652   1.449   1.184   4.602
 9901WAT      O43653   0.757   2.243   3.244
 9901WAT     H143654   0.662   2.237   3.230
 9901WAT     H243655   0.791   2.279   3.163
 9902WAT      O43656   3.457   4.729   1.577
 9902WAT     H143657   3.389   4.702   1.516
 9902WAT     H243658   3.440   4.822   1.593
 9903WAT      O43659   5.101   0.444  10.223
 9903WAT     H143660   5.146   0.376  10.274
 9903WAT     H243661   5.088   0.405  10.137
 9904WAT      O43662   2.630   1.385   3.551
 9904WAT     H143663   2.567   1.402   3.621
 9904WAT     H243664   2.673   1.469   3.536
 9905WAT      O43665   2.892   3.091   2.508
 9905WAT     H143666   2.898   3.135   2.423
 9905WAT     H243667   2.829   3.021   2.494
 9906WAT      O43668   4.367   1.451   4.761
 9906WAT     H143669   4.399   1.361   4.761
 9906WAT     H243670   4.288   1.450   4.815
 9907WAT      O43671   0.571   4.873  11.129
 9907WAT     H143672   0.484   4.908  11.149
 9907WAT     H243673   0.571   4.861  11.034
 9908WAT      O43674   1.896   2.609  12.026
 9908WAT     H143675   1.935   2.579  12.108
 9908WAT     H243676   1.805   2.578  12.031
 9909WAT      O43677   4.775   4.924   8.717
 9909WAT     H143678   4.851   4.873   8.746
 9909WAT     H243679   4.781   5.006   8.765
 9910WAT      O43680   3.166   3.391   0.824
 9910WAT     H143681   3.094   3.361   0.880
 9910WAT     H243682   3.124   3.450   0.761
 9911WAT      O43683   6.141   2.778   2.920
 9911WAT     H143684   6.223   2.814   2.955
 9911WAT     H243685   6.161   2.686   2.900
 9912WAT      O43686   0.378   5.233   9.577
 9912WAT     H143687   0.370   5.314   9.627
 9912WAT     H243688   0.315   5.243   9.505
 9913WAT      O43689   5.408   4.087   8.491
 9913WAT     H143690   5.387   4.179   8.505
 9913WAT     H243691   5.402   4.075   8.397
 9914WAT      O43692   1.351   3.926  11.667
 9914WAT     H143693   1.363   3.991  11.598
 9914WAT     H243694   1.410   3.953  11.737
 9915WAT      O43695   5.158   2.953   1.393
 9915WAT     H143696   5.087   2.917   1.340
 9915WAT     H243697   5.234   2.952   1.335
 9916WAT      O43698   0.796   1.714   4.247
 9916WAT     H143699   0.724   1.744   4.303
 9916WAT     H243700   0.794   1.772   4.171
 9917WAT      O43701   3.312   3.517   3.504
 9917WAT     H143702   3.329   3.518   3.410
 9917WAT     H243703   3.384   3.466   3.541
 9918WAT      O43704   0.773   0.977  10.060
 9918WAT     H143705   0.693   0.938  10.095
 9918WAT     H243706   0.819   0.905  10.017
 9919WAT      O43707   4.906   1.386  11.400
 9919WAT     H143708   4.973   1.350  11.459
 9919WAT     H243709   4.941   1.370  11.312
 9920WAT      O43710   6.091   1.009   8.624
 9920WAT     H143711   6.014   1.019   8.569
 9920WAT     H243712   6.153   0.959   8.571
 9921WAT      O43713   0.916   3.789   0.358
 9921WAT     H143714   1.009   3.767   0.359
 9921WAT     H243715   0.904   3.849   0.431
 9922WAT      O43716   4.687   2.599   2.254
 9922WAT     H143717   4.657   2.588   2.344
 9922WAT     H243718   4.766   2.652   2.261
 9923WAT      O43719   5.408   4.975   0.601
 9923WAT     H143720   5.451   5.010   0.523
 9923WAT     H243721   5.464   5.001   0.674
 9924WAT      O43722   0.459   1.336  12.580
 9924WAT     H143723   0.480   1.245  12.599
 9924WAT     H243724   0.490   1.350  12.491
 9925WAT      O43725   0.743   0.781  10.698
 9925WAT     H143726   0.734   0.701  10.646
 9925WAT     H243727   0.799   0.755  10.771
 9926WAT      O43728   0.168   3.062   2.781
 9926WAT     H143729   0.242   3.115   2.751
 9926WAT     H243730   0.189   2.973   2.752
 9927WAT      O43731   3.158   1.351  10.310
 9927WAT     H143732   3.135   1.297  10.385
 9927WAT     H243733   3.075   1.371  10.268
 9928WAT      O43734   2.250   4.336   0.102
 9928WAT     H143735   2.239   4.427   0.075
 9928WAT     H243736   2.162   4.308   0.128
 9929WAT      O43737   0.559   3.823   2.820
 9929WAT     H143738   0.574   3.876   2.741
 9929WAT     H243739   0.614   3.864   2.887
 9930WAT      O43740   3.322   5.653   9.706
 9930WAT     H143741   3.347   5.743   9.683
 9930WAT     H243742   3.240   5.638   9.659
 9931WAT      O43743   4.174   5.546   2.345
 9931WAT     H143744   4.222   5.603   2.405
 9931WAT     H243745   4.242   5.497   2.299
 9932WAT      O43746   5.640   4.857   1.349
 9932WAT     H143747   5.565   4.820   1.396
 9932WAT     H243748   5.690   4.780   1.320
 9933WAT      O43749   2.082   2.547   2.628
 9933WAT     H143750   2.112   2.546   2.719
 9933WAT     H243751   1.993   2.513   2.632
 9934WAT      O43752   3.361   0.700   8.948
 9934WAT     H143753   3.311   0.714   8.868
 9934WAT     H243754   3.370   0.787   8.986
 9935WAT      O43755   1.614   6.200   1.744
 9935WAT     H143756   1.569   6.281   1.720
 9935WAT     H243757   1.587   6.137   1.678
 9936WAT      O43758   2.581   3.409   2.198
 9936WAT     H143759   2.616   3.423   2.286
 9936WAT     H243760   2.527   3.487   2.181
 9937WAT      O43761   0.384   1.770  12.065
 9937WAT     H143762   0.334   1.736  12.140
 9937WAT     H243763   0.458   1.710  12.057
 9938WAT      O43764   3.311   2.275  12.074
 9938WAT     H143765   3.264   2.357  12.055
 9938WAT     H243766   3.404   2.300  12.073
 9939WAT      O43767   4.601   4.233  11.799
 9939WAT     H143768   4.652   4.165  11.842
 9939WAT     H243769   4.530   4.252  11.861
 9940WAT      O43770   3.799   5.471   4.434
 9940WAT     H143771   3.810   5.471   4.529
 9940WAT     H243772   3.733   5.403   4.418
 9941WAT      O43773   2.447   2.556   2.456
 9941WAT     H143774   2.430   2.476   2.506
 9941WAT     H243775   2.519   2.599   2.502
 9942WAT      O43776   5.525   1.037   0.601
 9942WAT     H143777   5.563   1.034   0.689
 9942WAT     H243778   5.547   0.952   0.562
 9943WAT      O43779   5.155   0.036   8.620
 9943WAT     H143780   5.122  -0.054   8.619
 9943WAT     H243781   5.088   0.086   8.668
 9944WAT      O43782   3.583   3.802   3.625
 9944WAT     H143783   3.542   3.888   3.618
 9944WAT     H243784   3.593   3.773   3.534
 9945WAT      O43785   2.981   3.597   7.933
 9945WAT     H143786   2.911   3.548   7.974
 9945WAT     H243787   3.052   3.534   7.923
 9946WAT      O43788   0.646   2.295   2.499
 9946WAT     H143789   0.615   2.386   2.499
 9946WAT     H243790   0.639   2.267   2.590
 9947WAT      O43791   4.480   2.191   3.363
 9947WAT     H143792   4.442   2.162   3.446
 9947WAT     H243793   4.451   2.282   3.355
 9948WAT      O43794   0.114   0.951   9.413
 9948WAT     H143795   0.073   0.878   9.367
 9948WAT     H243796   0.118   0.922   9.505
 9949WAT      O43797   2.714   0.380   9.089
 9949WAT     H143798   2.775   0.445   9.053
 9949WAT     H243799   2.665   0.429   9.155
 9950WAT      O43800   1.400   4.049  12.383
 9950WAT     H143801   1.489   4.071  12.354
 9950WAT     H243802   1.412   3.985  12.453
 9951WAT      O43803   2.236   4.680   2.729
 9951WAT     H143804   2.236   4.699   2.823
 9951WAT     H243805   2.212   4.587   2.724
 9952WAT      O43806   0.402   2.405   9.587
 9952WAT     H143807   0.403   2.315   9.618
 9952WAT     H243808   0.309   2.424   9.571
 9953WAT      O43809   4.575   3.147  11.580
 9953WAT     H143810   4.540   3.082  11.641
 9953WAT     H243811   4.665   3.161  11.608
 9954WAT      O43812   4.501   3.044  11.071
 9954WAT     H143813   4.524   3.132  11.041
 9954WAT     H243814   4.445   3.009  11.001
 9955WAT      O43815   2.462   3.695   3.569
 9955WAT     H143816   2.541   3.722   3.617
 9955WAT     H243817   2.419   3.632   3.627
 9956WAT      O43818   3.548   2.891   1.885
 9956WAT     H143819   3.517   2.814   1.932
 9956WAT     H243820   3.600   2.855   1.812
 9957WAT      O43821   5.578   2.792  11.075
 9957WAT     H143822   5.570   2.765  11.167
 9957WAT     H243823   5.488   2.791  11.042
 9958WAT      O43824   2.167   0.190  11.711
 9958WAT     H143825   2.236   0.226  11.655
 9958WAT     H243826   2.193   0.216  11.800
 9959WAT      O43827   1.886   3.742   9.597
 9959WAT     H143828   1.854   3.652   9.590
 9959WAT     H243829   1.963   3.745   9.541
 9960WAT      O43830   2.707   0.522  11.839
 9960WAT     H143831   2.770   0.579  11.883
 9960WAT     H243832   2.752   0.495  11.759
 9961WAT      O43833   4.654   1.241  12.301
 9961WAT     H143834   4.721   1.213  12.363
 9961WAT     H243835   4.624   1.160  12.261
 9962WAT      O43836   3.369   2.255  11.246
 9962WAT     H143837   3.297   2.310  11.215
 9962WAT     H243838   3.348   2.238  11.338
 9963WAT      O43839   5.642   0.074   1.659
 9963WAT     H143840   5.723   0.112   1.694
 9963WAT     H243841   5.652   0.080   1.564
 9964WAT      O43842   1.045   5.170   0.915
 9964WAT     H143843   0.997   5.190   0.995
 9964WAT     H243844   1.001   5.220   0.847
 9965WAT      O43845   4.683   5.397   7.978
 9965WAT     H143846   4.635   5.467   8.022
 9965WAT     H243847   4.616   5.344   7.936
 9966WAT      O43848   4.609   0.910   0.126
 9966WAT     H143849   4.628   1.001   0.146
 9966WAT     H243850   4.536   0.913   0.065
 9967WAT      O43851   0.623   6.214   4.205
 9967WAT     H143852   0.665   6.178   4.284
 9967WAT     H243853   0.540   6.249   4.236
 9968WAT      O43854   6.167   4.675   2.342
 9968WAT     H143855   6.089   4.730   2.349
 9968WAT     H243856   6.192   4.658   2.433
 9969WAT      O43857   1.277   3.796   9.711
 9969WAT     H143858   1.269   3.868   9.774
 9969WAT     H243859   1.196   3.745   9.722
 9970WAT      O43860   2.033   3.332  12.590
 9970WAT     H143861   2.059   3.375  12.508
 9970WAT     H243862   2.046   3.399  12.657
 9971WAT      O43863   0.550   2.469   3.122
 9971WAT     H143864   0.592   2.475   3.208
 9971WAT     H243865   0.621   2.489   3.061
 9972WAT      O43866   1.060   4.582   1.442
 9972WAT     H143867   1.118   4.602   1.515
 9972WAT     H243868   1.090   4.639   1.371
 9973WAT      O43869   2.465   0.416   9.952
 9973WAT     H143870   2.514   0.336   9.932
 9973WAT     H243871   2.393   0.387  10.007
 9974WAT      O43872   2.441   3.104  11.047
 9974WAT     H143873   2.468   3.014  11.064
 9974WAT     H243874   2.418   3.139  11.133
 9975WAT      O43875   3.036   5.209   3.579
 9975WAT     H143876   2.954   5.177   3.543
 9975WAT     H243877   3.019   5.301   3.601
 9976WAT      O43878   4.919   4.394   2.286
 9976WAT     H143879   4.911   4.482   2.323
 9976WAT     H243880   5.012   4.372   2.295
 9977WAT      O43881   1.256   3.483   8.727
 9977WAT     H143882   1.207   3.503   8.647
 9977WAT     H243883   1.260   3.566   8.775
 9978WAT      O43884   0.923   0.176   4.222
 9978WAT     H143885   0.936   0.084   4.244
 9978WAT     H243886   0.828   0.187   4.219
 9979WAT      O43887   5.114   5.669   1.262
 9979WAT     H143888   5.105   5.711   1.176
 9979WAT     H243889   5.026   5.671   1.299
 9980WAT      O43890   5.016   5.171  11.344
 9980WAT     H143891   5.011   5.184  11.250
 9980WAT     H243892   5.011   5.076  11.356
 9981WAT      O43893   2.149   0.561  11.510
 9981WAT     H143894   2.233   0.581  11.470
 9981WAT     H243895   2.151   0.466  11.524
 9982WAT      O43896   4.746   5.127   4.679
 9982WAT     H143897   4.714   5.211   4.713
 9982WAT     H243898   4.836   5.145   4.653
 9983WAT      O43899   3.552   1.251  10.664
 9983WAT     H143900   3.633   1.223  10.707
 9983WAT     H243901   3.536   1.184  10.597
 9984WAT      O43902   1.651   5.349  11.032
 9984WAT     H143903   1.721   5.303  11.078
 9984WAT     H243904   1.676   5.442  11.037
 9985WAT      O43905   0.115   1.472   2.404
 9985WAT     H143906   0.169   1.546   2.431
 9985WAT     H243907   0.177   1.409   2.367
 9986WAT      O43908   0.719   1.859   8.493
 9986WAT     H143909   0.633   1.839   8.456
 9986WAT     H243910   0.775   1.875   8.417
 9987WAT      O43911   0.396   0.138   1.434
 9987WAT     H143912   0.463   0.106   1.494
 9987WAT     H243913   0.360   0.059   1.394
 9988WAT      O43914   4.024   2.948   2.960
 9988WAT     H143915   3.980   2.970   2.877
 9988WAT     H243916   4.117   2.951   2.939
 9989WAT      O43917   2.159   2.092  11.613
 9989WAT     H143918   2.151   2.023  11.547
 9989WAT     H243919   2.170   2.045  11.696
 9990WAT      O43920   4.116   2.955  10.716
 9990WAT     H143921   4.074   2.869  10.705
 9990WAT     H243922   4.160   2.971  10.633
 9991WAT      O43923   4.590   0.715   1.409
 9991WAT     H143924   4.521   0.741   1.348
 9991WAT     H243925   4.553   0.640   1.456
 9992WAT      O43926   6.241   2.544   9.746
 9992WAT     H143927   6.167   2.506   9.793
 9992WAT     H243928   6.285   2.470   9.706
 9993WAT      O43929   0.076   3.336   3.715
 9993WAT     H143930   0.148   3.363   3.658
 9993WAT     H243931  -0.002   3.374   3.674
 9994WAT      O43932   1.222   2.752   3.175
 9994WAT     H143933   1.305   2.746   3.223
 9994WAT     H243934   1.246   2.784   3.089
 9995WAT      O43935   3.667   5.263   8.520
 9995WAT     H143936   3.691   5.186   8.468
 9995WAT     H243937   3.604   5.230   8.583
 9996WAT      O43938   3.336   5.778   0.994
 9996WAT     H143939   3.250   5.799   1.031
 9996WAT     H243940   3.316   5.725   0.916
 9997WAT      O43941   4.496   5.565   0.302
 9997WAT     H143942   4.410   5.549   0.262
 9997WAT     H243943   4.549   5.601   0.231
 9998WAT      O43944   3.521   5.232  10.164
 9998WAT     H143945   3.479   5.147  10.156
 9998WAT     H243946   3.453   5.290  10.197
 9999WAT      O43947   0.667   0.369  10.917
 9999WAT     H143948   0.692   0.449  10.963
 9999WAT     H243949   0.576   0.384  10.890
10000WAT      O43950   0.021   4.833   8.755
10000WAT     H143951   0.086   4.786   8.808
10000WAT     H243952   0.057   4.922   8.749
10001WAT      O43953   6.222   4.422  10.760
10001WAT     H143954   6.180   4.391  10.840
10001WAT     H243955   6.307   4.378  10.760
10002WAT      O43956   5.728   3.961   9.050
10002WAT     H143957   5.732   3.933   9.141
10002WAT     H243958   5.638   3.993   9.039
10003WAT      O43959   3.853   2.660   1.240
10003WAT     H143960   3.882   2.603   1.169
10003WAT     H243961   3.852   2.603   1.317
10004WAT      O43962   1.912   4.718  12.287
10004WAT     H143963   1.864   4.685  12.363
10004WAT     H243964   1.923   4.641  12.231
10005WAT      O43965   0.960   4.643   1.830
10005WAT     H143966   0.956   4.726   1.783
10005WAT     H243967   0.947   4.576   1.762
10006WAT      O43968   2.421   5.570   4.488
10006WAT     H143969   2.369   5.489   4.486
10006WAT     H243970   2.511   5.539   4.497
10007WAT      O43971   0.615   1.142   7.914
10007WAT     H143972   0.669   1.219   7.927
10007WAT     H243973   0.526   1.172   7.934
10008WAT      O43974   4.090   6.233   2.768
10008WAT     H143975   4.127   6.242   2.856
10008WAT     H243976   4.017   6.172   2.780
10009WAT      O43977   3.625   0.479  11.857
10009WAT     H143978   3.705   0.510  11.815
10009WAT     H243979   3.618   0.531  11.937
10010WAT      O43980   0.341   1.944   1.048
10010WAT     H143981   0.260   1.904   1.016
10010WAT     H243982   0.313   2.024   1.091
10011WAT      O43983   2.677   6.100   9.319
10011WAT     H143984   2.702   6.029   9.259
10011WAT     H243985   2.634   6.055   9.392
10012WAT      O43986   2.458   5.992  10.996
10012WAT     H143987   2.470   5.906  10.955
10012WAT     H243988   2.386   5.980  11.058
10013WAT      O43989   3.952   5.576   2.058
10013WAT     H143990   3.940   5.622   2.142
10013WAT     H243991   4.017   5.508   2.078
10014WAT      O43992   1.459   4.803  12.386
10014WAT     H143993   1.524   4.735  12.403
10014WAT     H243994   1.477   4.832  12.296
10015WAT      O43995   1.613   2.029   0.951
10015WAT     H143996   1.635   1.965   1.018
10015WAT     H243997   1.642   2.113   0.988
10016WAT      O43998   4.759   3.162   3.410
10016WAT     H143999   4.829   3.169   3.475
10016WAT     H244000   4.759   3.247   3.365
10017WAT      O44001   5.568   5.642   9.985
10017WAT     H144002   5.620   5.682  10.055
10017WAT     H244003   5.498   5.596  10.032
10018WAT      O44004   3.255   4.972   1.083
10018WAT     H144005   3.340   5.017   1.087
10018WAT     H244006   3.273   4.893   1.032
10019WAT      O44007   1.140   4.056   0.280
10019WAT     H144008   1.096   4.055   0.195
10019WAT     H244009   1.141   3.964   0.308
10020WAT      O44010   4.286   1.066   1.726
10020WAT     H144011   4.323   1.137   1.778
10020WAT     H244012   4.358   1.035   1.672
10021WAT      O44013   2.418   2.984   0.750
10021WAT     H144014   2.441   3.002   0.658
10021WAT     H244015   2.458   2.899   0.768
10022WAT      O44016   0.749   1.611  11.597
10022WAT     H144017   0.832   1.574  11.627
10022WAT     H244018   0.758   1.705  11.614
10023WAT      O44019   2.152   4.436   9.553
10023WAT     H144020   2.198   4.374   9.609
10023WAT     H244021   2.131   4.386   9.474
10024WAT      O44022   0.989   2.203   3.411
10024WAT     H144023   1.004   2.286   3.457
10024WAT     H244024   0.901   2.211   3.375
10025WAT      O44025   0.898   2.403   8.689
10025WAT     H144026   0.904   2.332   8.753
10025WAT     H244027   0.986   2.409   8.652
10026WAT      O44028   2.198   2.306   9.360
10026WAT     H144029   2.185   2.400   9.343
10026WAT     H244030   2.277   2.284   9.309
10027WAT      O44031   0.487   0.258   4.797
10027WAT     H144032   0.519   0.330   4.743
10027WAT     H244033   0.547   0.257   4.872
10028WAT      O44034   1.787   3.520   9.169
10028WAT     H144035   1.852   3.485   9.231
10028WAT     H244036   1.706   3.473   9.191
10029WAT      O44037   1.412   2.797   9.621
10029WAT     H144038   1.348   2.729   9.602
10029WAT     H244039   1.465   2.803   9.541
10030WAT      O44040   5.393   3.185  10.514
10030WAT     H144041   5.391   3.118  10.582
10030WAT     H244042   5.370   3.138  10.434
10031WAT      O44043   4.720   0.066  11.695
10031WAT     H144044   4.800   0.076  11.644
10031WAT     H244045   4.668   0.001  11.648
10032WAT      O44046   2.089   0.408   4.645
10032WAT     H144047   2.083   0.501   4.619
10032WAT     H244048   2.067   0.408   4.738
10033WAT      O44049   5.254   3.494  11.176
10033WAT     H144050   5.210   3.574  11.147
10033WAT     H244051   5.341   3.499  11.137
10034WAT      O44052   4.311   2.259   1.209
10034WAT     H144053   4.390   2.288   1.165
10034WAT     H244054   4.340   2.191   1.269
10035WAT      O44055   5.460   0.968  10.180
10035WAT     H144056   5.395   1.026  10.140
10035WAT     H244057   5.425   0.880  10.165
10036WAT      O44058   3.305   2.067  11.057
10036WAT     H144059   3.332   2.111  11.139
10036WAT     H244060   3.388   2.047  11.014
10037WAT      O44061   3.566   5.787   3.941
10037WAT     H144062   3.537   5.808   4.030
10037WAT     H244063   3.504   5.722   3.909
10038WAT      O44064   4.727   4.036   1.067
10038WAT     H144065   4.683   4.106   1.116
10038WAT     H244066   4.757   4.077   0.986
10039WAT      O44067   4.208   1.040   2.214
10039WAT     H144068   4.145   1.019   2.283
10039WAT     H244069   4.211   1.135   2.213
10040WAT      O44070   0.920   3.312   5.073
10040WAT     H144071   0.992   3.318   5.136
10040WAT     H244072   0.924   3.223   5.040
10041WAT      O44073   4.318   2.620  11.518
10041WAT     H144074   4.331   2.693  11.580
10041WAT     H244075   4.231   2.635  11.482
10042WAT      O44076   2.445   3.139   9.727
10042WAT     H144077   2.428   3.206   9.660
10042WAT     H244078   2.538   3.149   9.747
10043WAT      O44079   3.700   1.629   8.552
10043WAT     H144080   3.669   1.594   8.468
10043WAT     H244081   3.620   1.637   8.605
10044WAT      O44082   0.529   1.358  10.084
10044WAT     H144083   0.444   1.398  10.103
10044WAT     H244084   0.593   1.418  10.123
10045WAT      O44085   3.319   0.464   8.295
10045WAT     H144086   3.259   0.537   8.288
10045WAT     H244087   3.271   0.398   8.344
10046WAT      O44088   1.938   1.914   7.844
10046WAT     H144089   1.906   1.948   7.760
10046WAT     H244090   2.032   1.902   7.829
10047WAT      O44091   2.160   1.773   4.121
10047WAT     H144092   2.165   1.707   4.052
10047WAT     H244093   2.211   1.737   4.193
10048WAT      O44094   0.641   4.778   3.101
10048WAT     H144095   0.587   4.741   3.171
10048WAT     H244096   0.577   4.806   3.035
10049WAT      O44097   1.270   1.229  11.203
10049WAT     H144098   1.228   1.197  11.283
10049WAT     H244099   1.249   1.323  11.200
10050WAT      O44100   0.708   1.239  11.420
10050WAT     H144101   0.619   1.256  11.390
10050WAT     H244102   0.699   1.226  11.514
10051WAT      O44103   3.041   0.306  11.987
10051WAT     H144104   3.106   0.344  11.928
10051WAT     H244105   3.071   0.217  12.003
10052WAT      O44106   3.720   0.958  11.950
10052WAT     H144107   3.799   1.012  11.946
10052WAT     H244108   3.736   0.887  11.887
10053WAT      O44109   2.081   1.479   1.149
10053WAT     H144110   2.011   1.445   1.093
10053WAT     H244111   2.035   1.516   1.224
10054WAT      O44112   1.783   0.109   3.092
10054WAT     H144113   1.878   0.121   3.092
10054WAT     H244114   1.752   0.168   3.161
10055WAT      O44115   0.083   1.683  11.999
10055WAT     H144116   0.164   1.707  11.953
10055WAT     H244117   0.013   1.710  11.940
10056WAT      O44118   3.020   5.863  11.888
10056WAT     H144119   3.036   5.956  11.901
10056WAT     H244120   3.107   5.823  11.896
10057WAT      O44121   5.887   5.898   2.781
10057WAT     H144122   5.858   5.971   2.725
10057WAT     H244123   5.953   5.853   2.729
10058WAT      O44124   6.210   5.663  10.987
10058WAT     H144125   6.287   5.709  11.022
10058WAT     H244126   6.172   5.724  10.924
10059WAT      O44127   1.295   0.732  12.010
10059WAT     H144128   1.311   0.775  12.094
10059WAT     H244129   1.264   0.802  11.953
10060WAT      O44130   1.070   4.142  11.783
10060WAT     H144131   1.075   4.204  11.710
10060WAT     H244132   0.977   4.124  11.793
10061WAT      O44133   1.937   5.758   2.683
10061WAT     H144134   1.916   5.851   2.686
10061WAT     H244135   1.883   5.723   2.612
10062WAT      O44136   4.299   1.306   3.008
10062WAT     H144137   4.210   1.339   3.012
10062WAT     H244138   4.318   1.280   3.098
10063WAT      O44139   5.984   2.488   0.344
10063WAT     H144140   6.026   2.494   0.258
10063WAT     H244141   5.906   2.435   0.329
10064WAT      O44142   4.570   4.879   3.457
10064WAT     H144143   4.476   4.862   3.468
10064WAT     H244144   4.578   4.914   3.368
10065WAT      O44145   6.003   2.953  10.022
10065WAT     H144146   6.094   2.945   9.996
10065WAT     H244147   5.982   3.045  10.009
10066WAT      O44148   0.639   3.878   9.100
10066WAT     H144149   0.684   3.800   9.132
10066WAT     H244150   0.676   3.892   9.012
10067WAT      O44151   4.330   4.301   2.846
10067WAT     H144152   4.278   4.290   2.926
10067WAT     H244153   4.265   4.301   2.775
10068WAT      O44154   0.949   2.600   0.042
10068WAT     H144155   0.879   2.563  -0.013
10068WAT     H244156   0.903   2.658   0.103
10069WAT      O44157   0.125   2.591  10.479
10069WAT     H144158   0.187   2.643  10.530
10069WAT     H244159   0.147   2.609  10.387
10070WAT      O44160   4.451   1.420   9.932
10070WAT     H144161   4.486   1.472  10.004
10070WAT     H244162   4.528   1.393   9.882
10071WAT      O44163   1.770   0.089   3.957
10071WAT     H144164   1.772   0.129   3.870
10071WAT     H244165   1.731   0.156   4.013
10072WAT      O44166   2.833   2.380   2.315
10072WAT     H144167   2.918   2.354   2.281
10072WAT     H244168   2.770   2.333   2.261
10073WAT      O44169   1.060   1.831   1.262
10073WAT     H144170   0.973   1.866   1.242
10073WAT     H244171   1.058   1.742   1.228
10074WAT      O44172   5.057   1.743   2.375
10074WAT     H144173   5.045   1.654   2.342
10074WAT     H244174   5.084   1.732   2.466
10075WAT      O44175   5.067   4.868   8.828
10075WAT     H144176   5.140   4.925   8.853
10075WAT     H244177   5.101   4.779   8.837
10076WAT      O44178   3.384   5.916   9.641
10076WAT     H144179   3.343   5.997   9.611
10076WAT     H244180   3.472   5.919   9.605
10077WAT      O44181   1.030   3.741   9.818
10077WAT     H144182   1.070   3.790   9.890
10077WAT     H244183   0.991   3.808   9.762
10078WAT      O44184   3.142   4.836   4.971
10078WAT     H144185   3.092   4.758   4.993
10078WAT     H244186   3.232   4.813   4.991
10079WAT      O44187   2.895   3.968  11.073
10079WAT     H144188   2.925   3.919  11.150
10079WAT     H244189   2.953   4.043  11.069
10080WAT      O44190   1.414   0.956  10.263
10080WAT     H144191   1.359   1.004  10.325
10080WAT     H244192   1.377   0.868  10.262
10081WAT      O44193   4.458   2.942   9.752
10081WAT     H144194   4.531   2.985   9.707
10081WAT     H244195   4.498   2.866   9.796
10082WAT      O44196   3.443   4.040   3.518
10082WAT     H144197   3.427   4.017   3.427
10082WAT     H244198   3.441   4.135   3.520
10083WAT      O44199   1.594   3.073  10.817
10083WAT     H144200   1.552   3.030  10.743
10083WAT     H244201   1.539   3.149  10.836
10084WAT      O44202   5.326   2.430   9.803
10084WAT     H144203   5.342   2.340   9.774
10084WAT     H244204   5.283   2.471   9.728
10085WAT      O44205   3.865   4.727  10.452
10085WAT     H144206   3.871   4.637  10.485
10085WAT     H244207   3.805   4.771  10.512
10086WAT      O44208   2.893   5.240   3.321
10086WAT     H144209   2.833   5.299   3.274
10086WAT     H244210   2.980   5.277   3.304
10087WAT      O44211   5.929   5.651   9.267
10087WAT     H144212   6.024   5.664   9.275
10087WAT     H244213   5.893   5.686   9.348
10088WAT      O44214   2.646   3.763   3.151
10088WAT     H144215   2.670   3.714   3.229
10088WAT     H244216   2.659   3.701   3.079
10089WAT      O44217   5.150   2.397  12.014
10089WAT     H144218   5.185   2.314  11.982
10089WAT     H244219   5.149   2.455  11.938
10090WAT      O44220   0.291   1.224  10.540
10090WAT     H144221   0.358   1.170  10.582
10090WAT     H244222   0.208   1.191  10.575
10091WAT      O44223   4.228   0.082  10.147
10091WAT     H144224   4.267   0.035  10.220
10091WAT     H244225   4.138   0.100  10.176
10092WAT      O44226   4.438   5.436  12.201
10092WAT     H144227   4.382   5.408  12.273
10092WAT     H244228   4.392   5.406  12.122
10093WAT      O44229   4.755   0.693   2.605
10093WAT     H144230   4.660   0.686   2.597
10093WAT     H244231   4.769   0.773   2.656
10094WAT      O44232   0.723   4.514  12.203
10094WAT     H144233   0.745   4.590  12.257
10094WAT     H244234   0.805   4.491  12.160
10095WAT      O44235   1.192   4.366   9.054
10095WAT     H144236   1.232   4.452   9.038
10095WAT     H244237   1.265   4.310   9.080
10096WAT      O44238   3.437   4.004  11.362
10096WAT     H144239   3.521   4.027  11.322
10096WAT     H244240   3.459   3.979  11.452
10097WAT      O44241   1.951   2.781   3.709
10097WAT     H144242   1.945   2.703   3.654
10097WAT     H244243   1.889   2.766   3.780
10098WAT      O44244   0.447   0.569   2.135
10098WAT     H144245   0.532   0.612   2.135
10098WAT     H244246   0.432   0.545   2.043
10099WAT      O44247   3.742   0.332   0.980
10099WAT     H144248   3.706   0.260   1.030
10099WAT     H244249   3.836   0.330   0.998
10100WAT      O44250   0.050   3.076   4.020
10100WAT     H144251   0.052   3.004   3.956
10100WAT     H244252   0.039   3.032   4.105
10101WAT      O44253   2.934   5.608  10.056
10101WAT     H144254   2.955   5.695  10.091
10101WAT     H244255   3.019   5.566  10.044
10102WAT      O44256   4.340   4.033   8.752
10102WAT     H144257   4.275   3.963   8.746
10102WAT     H244258   4.393   4.009   8.829
10103WAT      O44259   4.276   4.678   0.995
10103WAT     H144260   4.243   4.660   1.083
10103WAT     H244261   4.248   4.768   0.977
10104WAT      O44262   4.182   5.193   3.859
10104WAT     H144263   4.271   5.173   3.830
10104WAT     H244264   4.181   5.171   3.953
10105WAT      O44265   1.574   0.598   0.045
10105WAT     H144266   1.531   0.684   0.044
10105WAT     H244267   1.665   0.616   0.024
10106WAT      O44268   3.990   0.459  11.124
10106WAT     H144269   4.036   0.526  11.175
10106WAT     H244270   4.056   0.391  11.109
10107WAT      O44271   4.509   2.240   1.458
10107WAT     H144272   4.437   2.251   1.520
10107WAT     H244273   4.539   2.150   1.472
10108WAT      O44274   3.783   1.888   1.207
10108WAT     H144275   3.728   1.936   1.145
10108WAT     H244276   3.747   1.799   1.208
10109WAT      O44277   0.330   3.996   1.843
10109WAT     H144278   0.270   3.953   1.904
10109WAT     H244279   0.315   4.090   1.858
10110WAT      O44280   4.068   1.123   9.690
10110WAT     H144281   4.094   1.097   9.778
10110WAT     H244282   4.017   1.049   9.658
10111WAT      O44283   6.177   0.126   2.502
10111WAT     H144284   6.230   0.051   2.529
10111WAT     H244285   6.240   0.186   2.460
10112WAT      O44286   1.543   3.581   2.934
10112WAT     H144287   1.602   3.582   2.858
10112WAT     H244288   1.459   3.613   2.900
10113WAT      O44289   2.498   3.323  11.575
10113WAT     H144290   2.548   3.243  11.592
10113WAT     H244291   2.420   3.294  11.529
10114WAT      O44292   4.040   2.056   0.098
10114WAT     H144293   4.008   2.026   0.013
10114WAT     H244294   4.112   1.996   0.118
10115WAT      O44295   5.094   5.884  10.667
10115WAT     H144296   5.076   5.970  10.706
10115WAT     H244297   5.051   5.886  10.582
10116WAT      O44298   3.491   2.524  12.236
10116WAT     H144299   3.399   2.504  12.252
10116WAT     H244300   3.489   2.594  12.171
10117WAT      O44301   2.653   1.421  12.317
10117WAT     H144302   2.584   1.422  12.384
10117WAT     H244303   2.733   1.444  12.364
10118WAT      O44304   1.921   2.193   7.702
10118WAT     H144305   1.865   2.127   7.663
10118WAT     H244306   1.867   2.235   7.769
10119WAT      O44307   0.980   4.662  10.956
10119WAT     H144308   1.012   4.626  10.873
10119WAT     H244309   1.007   4.598  11.022
10120WAT      O44310   3.435   5.419  12.629
10120WAT     H144311   3.380   5.480  12.678
10120WAT     H244312   3.418   5.441  12.537
10121WAT      O44313   5.546   1.315  12.667
10121WAT     H144314   5.611   1.353  12.608
10121WAT     H244315   5.571   1.223  12.673
10122WAT      O44316   1.076   5.238  10.972
10122WAT     H144317   1.106   5.287  10.895
10122WAT     H244318   1.147   5.176  10.989
10123WAT      O44319   2.692   0.144   1.829
10123WAT     H144320   2.720   0.114   1.916
10123WAT     H244321   2.708   0.069   1.772
10124WAT      O44322   2.490   6.104   2.316
10124WAT     H144323   2.457   6.017   2.293
10124WAT     H244324   2.411   6.156   2.332
10125WAT      O44325   5.673   0.721   2.535
10125WAT     H144326   5.769   0.721   2.543
10125WAT     H244327   5.642   0.760   2.617
10126WAT      O44328   0.757   0.487  11.746
10126WAT     H144329   0.698   0.430  11.796
10126WAT     H244330   0.824   0.427  11.713
10127WAT      O44331   4.347   3.497   2.652
10127WAT     H144332   4.265   3.480   2.697
10127WAT     H244333   4.413   3.494   2.721
10128WAT      O44334   2.955   1.736   8.385
10128WAT     H144335   3.001   1.754   8.467
10128WAT     H244336   2.863   1.752   8.405
10129WAT      O44337   0.346   1.740  11.634
10129WAT     H144338   0.367   1.712  11.545
10129WAT     H244339   0.403   1.817  11.649
10130WAT      O44340   1.139   2.934   9.200
10130WAT     H144341   1.233   2.930   9.219
10130WAT     H244342   1.127   2.871   9.129
10131WAT      O44343   3.636   5.849   2.540
10131WAT     H144344   3.558   5.793   2.537
10131WAT     H244345   3.686   5.818   2.615
10132WAT      O44346   2.523   5.943   1.575
10132WAT     H144347   2.467   5.992   1.514
10132WAT     H244348   2.585   6.009   1.608
10133WAT      O44349   4.432   1.744  10.482
10133WAT     H144350   4.517   1.786  10.491
10133WAT     H244351   4.448   1.652  10.499
10134WAT      O44352   2.299   0.671   3.295
10134WAT     H144353   2.246   0.655   3.217
10134WAT     H244354   2.325   0.584   3.325
10135WAT      O44355   2.589   2.767   0.125
10135WAT     H144356   2.621   2.701   0.064
10135WAT     H244357   2.585   2.848   0.074
10136WAT      O44358   2.184   2.027   3.933
10136WAT     H144359   2.150   2.100   3.985
10136WAT     H244360   2.159   1.949   3.981
10137WAT      O44361   0.258   0.657  11.366
10137WAT     H144362   0.231   0.572  11.331
10137WAT     H244363   0.299   0.702  11.292
10138WAT      O44364   5.585   1.444  10.548
10138WAT     H144365   5.491   1.461  10.544
10138WAT     H244366   5.593   1.350  10.535
10139WAT      O44367   0.188   5.407   3.237
10139WAT     H144368   0.184   5.350   3.160
10139WAT     H244369   0.098   5.412   3.268
10140WAT      O44370   3.680   6.020   2.326
10140WAT     H144371   3.650   5.945   2.378
10140WAT     H244372   3.765   5.992   2.291
10141WAT      O44373   2.084   1.951  12.626
10141WAT     H144374   2.151   2.019  12.634
10141WAT     H244375   2.020   1.972  12.694
10142WAT      O44376   4.441   5.622   1.772
10142WAT     H144377   4.461   5.711   1.803
10142WAT     H244378   4.478   5.618   1.684
10143WAT      O44379   0.631   2.331  11.634
10143WAT     H144380   0.535   2.330  11.624
10143WAT     H244381   0.645   2.355  11.725
10144WAT      O44382   3.276   1.636   3.987
10144WAT     H144383   3.242   1.641   4.076
10144WAT     H244384   3.209   1.588   3.938
10145WAT      O44385   5.353   2.322   9.453
10145WAT     H144386   5.302   2.338   9.374
10145WAT     H244387   5.429   2.380   9.445
10146WAT      O44388   4.934   2.298   2.180
10146WAT     H144389   4.866   2.259   2.235
10146WAT     H244390   4.986   2.224   2.149
10147WAT      O44391   1.161   2.258   9.510
10147WAT     H144392   1.217   2.183   9.489
10147WAT     H244393   1.073   2.228   9.491
10148WAT      O44394   2.797   2.613   3.815
10148WAT     H144395   2.752   2.584   3.894
10148WAT     H244396   2.730   2.660   3.765
10149WAT      O44397   4.239   2.355   2.603
10149WAT     H144398   4.240   2.266   2.640
10149WAT     H244399   4.248   2.341   2.509
10150WAT      O44400   1.224   2.365   4.245
10150WAT     H144401   1.206   2.398   4.333
10150WAT     H244402   1.247   2.443   4.194
10151WAT      O44403   0.219   6.169   7.320
10151WAT     H144404   0.125   6.167   7.339
10151WAT     H244405   0.248   6.079   7.334
10152WAT      O44406   0.517   1.422  11.100
10152WAT     H144407   0.498   1.460  11.014
10152WAT     H244408   0.432   1.419  11.144
10153WAT      O44409   5.059   4.165  11.529
10153WAT     H144410   5.037   4.169  11.436
10153WAT     H244411   5.089   4.076  11.543
10154WAT      O44412   1.865   1.063   9.766
10154WAT     H144413   1.811   1.003   9.714
10154WAT     H244414   1.847   1.149   9.728
10155WAT      O44415   1.543   4.096   9.861
10155WAT     H144416   1.452   4.102   9.831
10155WAT     H244417   1.570   4.006   9.841
10156WAT      O44418   4.968   1.525  11.700
10156WAT     H144419   4.978   1.467  11.624
10156WAT     H244420   5.036   1.591  11.689
10157WAT      O44421   4.408   0.314   7.903
10157WAT     H144422   4.481   0.347   7.850
10157WAT     H244423   4.372   0.393   7.945
10158WAT      O44424   1.093   4.964   1.202
10158WAT     H144425   1.144   4.983   1.124
10158WAT     H244426   1.002   4.970   1.174
10159WAT      O44427   1.425   3.872  12.596
10159WAT     H144428   1.428   3.796  12.537
10159WAT     H244429   1.444   3.837  12.682
10160WAT      O44430   2.276   5.217   0.664
10160WAT     H144431   2.347   5.221   0.600
10160WAT     H244432   2.250   5.125   0.666
10161WAT      O44433   3.872   0.227   1.305
10161WAT     H144434   3.800   0.185   1.257
10161WAT     H244435   3.828   0.280   1.372
10162WAT      O44436   0.667   2.318  12.613
10162WAT     H144437   0.584   2.311  12.567
10162WAT     H244438   0.724   2.254  12.570
10163WAT      O44439   1.820   0.142   1.470
10163WAT     H144440   1.879   0.068   1.483
10163WAT     H244441   1.742   0.103   1.429
10164WAT      O44442   3.001   3.280   1.616
10164WAT     H144443   3.054   3.219   1.668
10164WAT     H244444   2.911   3.250   1.629
10165WAT      O44445   2.976   6.090   0.743
10165WAT     H144446   3.010   6.079   0.832
10165WAT     H244447   2.896   6.142   0.754
10166WAT      O44448   2.508   5.289  11.161
10166WAT     H144449   2.543   5.364  11.210
10166WAT     H244450   2.467   5.234  11.227
10167WAT      O44451   2.766   0.483  12.232
10167WAT     H144452   2.792   0.392  12.246
10167WAT     H244453   2.671   0.478  12.221
10168WAT      O44454   2.588   3.058   0.035
10168WAT     H144455   2.603   3.108   0.116
10168WAT     H244456   2.536   3.117  -0.019
10169WAT      O44457   1.768   4.930   0.315
10169WAT     H144458   1.842   4.877   0.287
10169WAT     H244459   1.786   5.017   0.279
10170WAT      O44460   0.889   5.685   2.537
10170WAT     H144461   0.928   5.751   2.481
10170WAT     H244462   0.870   5.611   2.478
10171WAT      O44463   1.364   1.132  12.023
10171WAT     H144464   1.303   1.065  11.993
10171WAT     H244465   1.403   1.167  11.943
10172WAT      O44466   2.339   5.991  11.916
10172WAT     H144467   2.318   6.039  11.835
10172WAT     H244468   2.430   6.014  11.934
10173WAT      O44469   1.850   5.050  10.423
10173WAT     H144470   1.869   5.035  10.516
10173WAT     H244471   1.853   5.145  10.413
10174WAT      O44472   3.559   1.513   4.623
10174WAT     H144473   3.526   1.427   4.652
10174WAT     H244474   3.497   1.540   4.555
10175WAT      O44475   4.354   2.096   4.570
10175WAT     H144476   4.346   2.168   4.633
10175WAT     H244477   4.292   2.118   4.500
10176WAT      O44478   3.871   2.970   3.621
10176WAT     H144479   3.882   3.013   3.706
10176WAT     H244480   3.871   2.877   3.641
10177WAT      O44481   3.756   2.611   8.381
10177WAT     H144482   3.673   2.646   8.412
10177WAT     H244483   3.770   2.653   8.296
10178WAT      O44484   5.887   1.686   7.782
10178WAT     H144485   5.942   1.665   7.707
10178WAT     H244486   5.821   1.616   7.785
10179WAT      O44487   5.433   5.945   2.109
10179WAT     H144488   5.389   5.996   2.041
10179WAT     H244489   5.443   6.006   2.182
10180WAT      O44490   4.808   1.592  12.336
10180WAT     H144491   4.881   1.652  12.322
10180WAT     H244492   4.729   1.645  12.324
10181WAT      O44493   5.998   1.908  10.243
10181WAT     H144494   5.915   1.919  10.197
10181WAT     H244495   6.056   1.974  10.205
10182WAT      O44496   0.556   1.229   2.368
10182WAT     H144497   0.538   1.136   2.383
10182WAT     H244498   0.635   1.229   2.314
10183WAT      O44499   2.654   1.471  10.729
10183WAT     H144500   2.675   1.553  10.684
10183WAT     H244501   2.730   1.415  10.713
10184WAT      O44502   4.267   5.928   2.075
10184WAT     H144503   4.254   6.021   2.056
10184WAT     H244504   4.183   5.898   2.108
10185WAT      O44505   2.919   4.722   2.686
10185WAT     H144506   2.845   4.666   2.710
10185WAT     H244507   2.898   4.807   2.725
10186WAT      O44508   3.725   1.360   4.377
10186WAT     H144509   3.632   1.364   4.356
10186WAT     H244510   3.728   1.328   4.467
10187WAT      O44511   1.010   0.409  10.030
10187WAT     H144512   0.966   0.383  10.111
10187WAT     H244513   1.032   0.501  10.044
10188WAT      O44514   0.117   3.459  10.792
10188WAT     H144515   0.076   3.511  10.723
10188WAT     H244516   0.073   3.486  10.872
10189WAT      O44517   5.615   5.889   0.631
10189WAT     H144518   5.598   5.795   0.630
10189WAT     H244519   5.610   5.915   0.539
10190WAT      O44520   5.264   0.129   3.755
10190WAT     H144521   5.285   0.208   3.705
10190WAT     H244522   5.252   0.160   3.844
10191WAT      O44523   0.503   4.379   8.810
10191WAT     H144524   0.508   4.333   8.894
10191WAT     H244525   0.443   4.326   8.757
10192WAT      O44526   0.037   2.315   7.956
10192WAT     H144527   0.041   2.220   7.944
10192WAT     H244528  -0.022   2.345   7.887
10193WAT      O44529   2.281   3.991  12.586
10193WAT     H144530   2.361   3.940  12.588
10193WAT     H244531   2.227   3.954  12.656
10194WAT      O44532   5.185   0.907   8.892
10194WAT     H144533   5.128   0.837   8.924
10194WAT     H244534   5.144   0.988   8.924
10195WAT      O44535   3.459   2.700   1.481
10195WAT     H144536   3.505   2.758   1.421
10195WAT     H244537   3.379   2.676   1.435
10196WAT      O44538   3.519   1.242   1.750
10196WAT     H144539   3.530   1.206   1.837
10196WAT     H244540   3.464   1.320   1.762
10197WAT      O44541   3.367   5.943  10.686
10197WAT     H144542   3.355   5.858  10.644
10197WAT     H244543   3.449   5.933  10.735
10198WAT      O44544   3.554   4.914   2.971
10198WAT     H144545   3.631   4.960   2.937
10198WAT     H244546   3.499   4.984   3.007
10199WAT      O44547   2.037   4.640  11.646
10199WAT     H144548   1.962   4.642  11.588
10199WAT     H244549   2.092   4.713  11.617
10200WAT      O44550   3.776   1.077   1.151
10200WAT     H144551   3.766   1.081   1.246
10200WAT     H244552   3.694   1.041   1.119
10201WAT      O44553   2.723   0.665   3.383
10201WAT     H144554   2.796   0.662   3.321
10201WAT     H244555   2.650   0.698   3.331
10202WAT      O44556   3.078   5.913   2.463
10202WAT     H144557   3.065   5.818   2.468
10202WAT     H244558   3.118   5.936   2.547
10203WAT      O44559   2.213   1.396   2.926
10203WAT     H144560   2.125   1.425   2.949
10203WAT     H244561   2.248   1.360   3.008
10204WAT      O44562   2.953   5.635   2.326
10204WAT     H144563   2.907   5.678   2.254
10204WAT     H244564   2.895   5.563   2.352
10205WAT      O44565   4.077   3.318   1.031
10205WAT     H144566   3.999   3.350   0.986
10205WAT     H244567   4.062   3.339   1.123
10206WAT      O44568   1.114   3.499  12.495
10206WAT     H144569   1.075   3.411  12.496
10206WAT     H244570   1.205   3.485  12.520
10207WAT      O44571   4.274   3.979   1.885
10207WAT     H144572   4.245   3.889   1.904
10207WAT     H244573   4.232   4.000   1.802
10208WAT      O44574   5.951   1.713   2.734
10208WAT     H144575   5.920   1.694   2.822
10208WAT     H244576   6.043   1.738   2.746
10209WAT      O44577   5.576   2.777   9.308
10209WAT     H144578   5.562   2.712   9.239
10209WAT     H244579   5.507   2.760   9.371
10210WAT      O44580   4.467   3.092   0.146
10210WAT     H144581   4.465   3.134   0.233
10210WAT     H244582   4.514   3.155   0.091
10211WAT      O44583   6.263   0.288  10.766
10211WAT     H144584   6.220   0.355  10.820
10211WAT     H244585   6.213   0.209  10.784
10212WAT      O44586   0.604   3.198   9.713
10212WAT     H144587   0.698   3.194   9.729
10212WAT     H244588   0.591   3.154   9.629
10213WAT      O44589   1.694   3.765  12.648
10213WAT     H144590   1.603   3.754  12.620
10213WAT     H244591   1.741   3.791  12.569
10214WAT      O44592   1.535   5.140   8.880
10214WAT     H144593   1.628   5.152   8.902
10214WAT     H244594   1.494   5.223   8.904
10215WAT      O44595   0.217   5.905   4.611
10215WAT     H144596   0.152   5.962   4.654
10215WAT     H244597   0.277   5.880   4.681
10216WAT      O44598   1.905   4.056   3.387
10216WAT     H144599   1.821   4.047   3.433
10216WAT     H244600   1.962   3.990   3.427
10217WAT      O44601   0.630   6.122   3.306
10217WAT     H144602   0.556   6.072   3.339
10217WAT     H244603   0.671   6.065   3.241
10218WAT      O44604   3.648   0.196  12.554
10218WAT     H144605   3.557   0.169  12.565
10218WAT     H244606   3.656   0.276  12.606
10219WAT      O44607   3.718   2.292   8.976
10219WAT     H144608   3.677   2.292   8.889
10219WAT     H244609   3.658   2.241   9.031
10220WAT      O44610  -0.009   5.204   0.834
10220WAT     H144611  -0.037   5.112   0.824
10220WAT     H244612   0.084   5.198   0.857
10221WAT      O44613   2.431   4.764   0.258
10221WAT     H144614   2.432   4.778   0.353
10221WAT     H244615   2.519   4.786   0.229
10222WAT      O44616   4.943   5.609  10.673
10222WAT     H144617   4.990   5.526  10.674
10222WAT     H244618   5.004   5.672  10.711
10223WAT      O44619   1.081   5.101  10.572
10223WAT     H144620   1.158   5.134  10.525
10223WAT     H244621   1.111   5.017  10.608
10224WAT      O44622   0.877   4.597   9.810
10224WAT     H144623   0.864   4.638   9.895
10224WAT     H244624   0.971   4.583   9.804
10225WAT      O44625   1.072   4.366   3.653
10225WAT     H144626   1.124   4.446   3.657
10225WAT     H244627   0.982   4.397   3.639
10226WAT      O44628   0.779   3.066   2.465
10226WAT     H144629   0.827   3.080   2.547
10226WAT     H244630   0.710   3.132   2.467
10227WAT      O44631   0.050   0.626   8.949
10227WAT     H144632  -0.024   0.654   8.895
10227WAT     H244633   0.115   0.596   8.887
10228WAT      O44634   6.152   3.752   3.704
10228WAT     H144635   6.209   3.819   3.667
10228WAT     H244636   6.164   3.676   3.646
10229WAT      O44637   1.724   4.911   3.683
10229WAT     H144638   1.647   4.911   3.626
10229WAT     H244639   1.692   4.942   3.768
10230WAT      O44640   0.790   4.579   0.297
10230WAT     H144641   0.830   4.495   0.317
10230WAT     H244642   0.787   4.583   0.201
10231WAT      O44643   1.413   1.312   7.932
10231WAT     H144644   1.366   1.344   7.855
10231WAT     H244645   1.494   1.274   7.896
10232WAT      O44646   1.144   3.356   2.841
10232WAT     H144647   1.182   3.405   2.913
10232WAT     H244648   1.178   3.267   2.852
10233WAT      O44649   5.276   2.365   2.957
10233WAT     H144650   5.275   2.344   2.863
10233WAT     H244651   5.186   2.354   2.986
10234WAT      O44652   5.040   1.219   2.272
10234WAT     H144653   5.048   1.127   2.296
10234WAT     H244654   4.983   1.257   2.338
10235WAT      O44655   5.328   3.118   1.695
10235WAT     H144656   5.340   3.202   1.739
10235WAT     H244657   5.388   3.121   1.621
10236WAT      O44658   3.554   5.080  10.470
10236WAT     H144659   3.545   5.011  10.535
10236WAT     H244660   3.464   5.103  10.446
10237WAT      O44661   0.075   5.431  10.940
10237WAT     H144662   0.025   5.362  10.984
10237WAT     H244663   0.030   5.512  10.962
10238WAT      O44664   2.161   5.978   1.759
10238WAT     H144665   2.076   6.005   1.793
10238WAT     H244666   2.224   6.009   1.824
10239WAT      O44667   3.240   2.687  10.164
10239WAT     H144668   3.213   2.715  10.076
10239WAT     H244669   3.330   2.657  10.153
10240WAT      O44670   4.128   3.531  11.333
10240WAT     H144671   4.136   3.439  11.307
10240WAT     H244672   4.210   3.571  11.305
10241WAT      O44673   2.155   0.735   3.967
10241WAT     H144674   2.095   0.708   3.898
10241WAT     H244675   2.127   0.824   3.990
10242WAT      O44676   2.955   4.047  12.262
10242WAT     H144677   3.016   4.017  12.330
10242WAT     H244678   2.877   3.993  12.274
10243WAT      O44679   3.159   1.900   4.048
10243WAT     H144680   3.140   1.843   3.974
10243WAT     H244681   3.163   1.841   4.123
10244WAT      O44682   1.918   1.156   0.900
10244WAT     H144683   1.988   1.144   0.837
10244WAT     H244684   1.890   1.067   0.922
10245WAT      O44685   4.380   4.824   4.586
10245WAT     H144686   4.392   4.735   4.618
10245WAT     H244687   4.469   4.858   4.576
10246WAT      O44688   0.306   1.787  11.230
10246WAT     H144689   0.233   1.726  11.225
10246WAT     H244690   0.380   1.734  11.260
10247WAT      O44691   3.375   5.430   4.374
10247WAT     H144692   3.446   5.377   4.410
10247WAT     H244693   3.295   5.385   4.402
10248WAT      O44694   1.229   0.742   9.379
10248WAT     H144695   1.193   0.698   9.302
10248WAT     H244696   1.316   0.770   9.352
10249WAT      O44697   4.872   1.394   2.433
10249WAT     H144698   4.804   1.395   2.365
10249WAT     H244699   4.830   1.434   2.509
10250WAT      O44700   3.552   1.220  10.964
10250WAT     H144701   3.637   1.220  10.922
10250WAT     H244702   3.493   1.262  10.901
10251WAT      O44703   1.560   2.777   2.716
10251WAT     H144704   1.554   2.729   2.634
10251WAT     H244705   1.514   2.859   2.699
10252WAT      O44706   1.209   2.754  12.154
10252WAT     H144707   1.183   2.827  12.097
10252WAT     H244708   1.133   2.738  12.209
10253WAT      O44709   5.039   1.889   8.685
10253WAT     H144710   5.045   1.977   8.649
10253WAT     H244711   5.102   1.888   8.757
10254WAT      O44712   4.190   2.461   3.695
10254WAT     H144713   4.221   2.503   3.615
10254WAT     H244714   4.096   2.449   3.681
10255WAT      O44715   0.834   1.897   0.143
10255WAT     H144716   0.853   1.932   0.056
10255WAT     H244717   0.919   1.869   0.177
10256WAT      O44718   4.101   0.091   8.587
10256WAT     H144719   4.121   0.180   8.557
10256WAT     H244720   4.169   0.073   8.652
10257WAT      O44721   2.663   4.183   9.234
10257WAT     H144722   2.705   4.269   9.227
10257WAT     H244723   2.579   4.194   9.190
10258WAT      O44724   1.279   0.374   3.035
10258WAT     H144725   1.233   0.400   2.955
10258WAT     H244726   1.346   0.313   3.005
10259WAT      O44727   1.198   0.309   2.595
10259WAT     H144728   1.117   0.325   2.644
10259WAT     H244729   1.168   0.279   2.510
10260WAT      O44730   4.028   5.982   2.933
10260WAT     H144731   4.106   5.940   2.970
10260WAT     H244732   4.029   6.071   2.968
10261WAT      O44733   2.397   5.321   4.175
10261WAT     H144734   2.487   5.344   4.197
10261WAT     H244735   2.347   5.338   4.254
10262WAT      O44736   3.593   5.838   0.207
10262WAT     H144737   3.688   5.830   0.199
10262WAT     H244738   3.576   5.932   0.205
10263WAT      O44739   4.946  -0.004  12.430
10263WAT     H144740   4.928   0.017  12.338
10263WAT     H244741   5.038   0.021  12.443
10264WAT      O44742   6.267   4.723   2.075
10264WAT     H144743   6.239   4.719   2.167
10264WAT     H244744   6.204   4.667   2.029
10265WAT      O44745   5.455   0.230   1.772
10265WAT     H144746   5.530   0.183   1.737
10265WAT     H244747   5.379   0.183   1.740
10266WAT      O44748   3.124   5.964   2.725
10266WAT     H144749   3.199   5.993   2.777
10266WAT     H244750   3.058   5.938   2.789
10267WAT      O44751   5.499   3.110   9.667
10267WAT     H144752   5.518   3.181   9.606
10267WAT     H244753   5.499   3.031   9.612
10268WAT      O44754   4.705   4.119   2.819
10268WAT     H144755   4.623   4.072   2.835
10268WAT     H244756   4.746   4.073   2.746
10269WAT      O44757   4.848   3.590   3.771
10269WAT     H144758   4.871   3.583   3.864
10269WAT     H244759   4.753   3.578   3.769
10270WAT      O44760   4.622   2.005   3.251
10270WAT     H144761   4.568   2.070   3.296
10270WAT     H244762   4.711   2.021   3.282
10271WAT      O44763   5.913   4.346   1.386
10271WAT     H144764   5.953   4.302   1.311
10271WAT     H244765   5.978   4.411   1.414
10272WAT      O44766   4.317   3.710  10.580
10272WAT     H144767   4.286   3.760  10.505
10272WAT     H244768   4.238   3.674  10.619
10273WAT      O44769   3.911   1.459   3.223
10273WAT     H144770   3.919   1.365   3.237
10273WAT     H244771   3.907   1.496   3.311
10274WAT      O44772   0.290   4.743  10.221
10274WAT     H144773   0.262   4.801  10.150
10274WAT     H244774   0.372   4.705  10.190
10275WAT      O44775   4.655   4.736  11.624
10275WAT     H144776   4.706   4.698  11.696
10275WAT     H244777   4.571   4.690  11.629
10276WAT      O44778   4.717   2.555  11.886
10276WAT     H144779   4.806   2.587  11.876
10276WAT     H244780   4.711   2.528  11.978
10277WAT      O44781   1.823   5.784   0.443
10277WAT     H144782   1.737   5.746   0.460
10277WAT     H244783   1.885   5.722   0.483
10278WAT      O44784   0.168   2.245   8.633
10278WAT     H144785   0.254   2.285   8.648
10278WAT     H244786   0.124   2.251   8.718
10279WAT      O44787   5.418   0.699   3.663
10279WAT     H144788   5.370   0.706   3.581
10279WAT     H244789   5.360   0.738   3.729
10280WAT      O44790   0.956   5.499  12.379
10280WAT     H144791   0.865   5.478  12.358
10280WAT     H244792   0.983   5.431  12.441
10281WAT      O44793   2.415   0.339   1.325
10281WAT     H144794   2.380   0.344   1.236
10281WAT     H244795   2.497   0.389   1.322
10282WAT      O44796   4.389   0.908   9.943
10282WAT     H144797   4.294   0.915   9.933
10282WAT     H244798   4.417   0.995   9.971
10283WAT      O44799   5.145   6.220   2.065
10283WAT     H144800   5.178   6.190   1.980
10283WAT     H244801   5.086   6.150   2.094
10284WAT      O44802   2.280   5.215   7.895
10284WAT     H144803   2.351   5.179   7.842
10284WAT     H244804   2.311   5.301   7.922
10285WAT      O44805   4.168   6.077   8.000
10285WAT     H144806   4.208   6.155   7.962
10285WAT     H244807   4.083   6.071   7.957
10286WAT      O44808   3.097   1.001   4.037
10286WAT     H144809   3.063   1.087   4.063
10286WAT     H244810   3.176   0.989   4.089
10287WAT      O44811   5.086   2.475   1.732
10287WAT     H144812   5.159   2.493   1.674
10287WAT     H244813   5.015   2.529   1.698
10288WAT      O44814   5.329   0.583   1.392
10288WAT     H144815   5.287   0.498   1.389
10288WAT     H244816   5.359   0.599   1.302
10289WAT      O44817   0.737   3.980   2.000
10289WAT     H144818   0.702   3.983   2.089
10289WAT     H244819   0.668   3.938   1.949
10290WAT      O44820   3.980   2.774  12.002
10290WAT     H144821   4.025   2.799  11.921
10290WAT     H244822   3.916   2.844  12.016
10291WAT      O44823   4.897   4.252   9.936
10291WAT     H144824   4.850   4.297   9.866
10291WAT     H244825   4.892   4.311  10.011
10292WAT      O44826   0.519   0.467   8.926
10292WAT     H144827   0.486   0.555   8.908
10292WAT     H244828   0.602   0.480   8.971
10293WAT      O44829   4.131   3.312  12.428
10293WAT     H144830   4.103   3.245  12.491
10293WAT     H244831   4.141   3.265  12.345
10294WAT      O44832   4.268   5.855   7.765
10294WAT     H144833   4.245   5.769   7.731
10294WAT     H244834   4.287   5.840   7.858
10295WAT      O44835   2.313   0.759   2.070
10295WAT     H144836   2.346   0.838   2.114
10295WAT     H244837   2.391   0.705   2.055
10296WAT      O44838   3.576   1.010   0.086
10296WAT     H144839   3.637   0.954   0.133
10296WAT     H244840   3.491   0.993   0.127
10297WAT      O44841   0.742   1.673   0.013
10297WAT     H144842   0.773   1.584   0.032
10297WAT     H244843   0.758   1.722   0.093
10298WAT      O44844   0.725   2.613   9.058
10298WAT     H144845   0.727   2.708   9.074
10298WAT     H244846   0.633   2.595   9.036
10299WAT      O44847   2.021   6.155   9.874
10299WAT     H144848   2.106   6.192   9.900
10299WAT     H244849   1.960   6.184   9.942
10300WAT      O44850   4.228   1.198   0.874
10300WAT     H144851   4.202   1.121   0.924
10300WAT     H244852   4.272   1.254   0.938
10301WAT      O44853   5.476   0.000   8.990
10301WAT     H144854   5.541   0.059   8.953
10301WAT     H244855   5.399   0.055   9.005
10302WAT      O44856   0.068   0.791   4.131
10302WAT     H144857  -0.016   0.812   4.172
10302WAT     H244858   0.052   0.712   4.080
10303WAT      O44859   1.476   3.009   3.154
10303WAT     H144860   1.419   2.997   3.230
10303WAT     H244861   1.425   2.975   3.080
10304WAT      O44862   0.285   5.625  11.145
10304WAT     H144863   0.267   5.664  11.059
10304WAT     H244864   0.205   5.639  11.196
10305WAT      O44865   1.098   4.626   4.232
10305WAT     H144866   1.014   4.580   4.237
10305WAT     H244867   1.076   4.717   4.251
10306WAT      O44868   4.220   4.047   1.021
10306WAT     H144869   4.276   4.077   1.093
10306WAT     H244870   4.149   4.110   1.018
10307WAT      O44871   0.272   3.724   3.319
10307WAT     H144872   0.349   3.772   3.287
10307WAT     H244873   0.285   3.635   3.287
10308WAT      O44874   3.637   3.471   0.958
10308WAT     H144875   3.601   3.542   1.011
10308WAT     H244876   3.728   3.495   0.944
10309WAT      O44877   2.337   2.028   0.845
10309WAT     H144878   2.273   2.006   0.777
10309WAT     H244879   2.347   2.123   0.837
10310WAT      O44880   0.040   2.137  10.400
10310WAT     H144881   0.012   2.168  10.314
10310WAT     H244882   0.102   2.066  10.382
10311WAT      O44883   0.283   3.257   4.218
10311WAT     H144884   0.277   3.313   4.295
10311WAT     H244885   0.204   3.276   4.168
10312WAT      O44886   1.875   4.964  12.154
10312WAT     H144887   1.915   4.881  12.178
10312WAT     H244888   1.829   4.993  12.233
10313WAT      O44889   4.713   2.876   0.936
10313WAT     H144890   4.628   2.836   0.959
10313WAT     H244891   4.773   2.802   0.932
10314WAT      O44892   1.987   1.712   9.099
10314WAT     H144893   1.935   1.712   9.018
10314WAT     H244894   1.983   1.621   9.130
10315WAT      O44895   5.167   5.771  12.518
10315WAT     H144896   5.079   5.804  12.536
10315WAT     H244897   5.206   5.757  12.604
10316WAT      O44898   2.484   3.077   4.286
10316WAT     H144899   2.532   3.156   4.310
10316WAT     H244900   2.403   3.083   4.336
10317WAT      O44901   2.810   3.924   0.706
10317WAT     H144902   2.825   3.996   0.644
10317WAT     H244903   2.897   3.884   0.716
10318WAT      O44904   3.290   4.118   4.774
10318WAT     H144905   3.324   4.188   4.719
10318WAT     H244906   3.200   4.143   4.794
10319WAT      O44907   1.933   2.019   0.211
10319WAT     H144908   1.958   2.111   0.209
10319WAT     H244909   1.952   1.991   0.301
10320WAT      O44910   4.242   4.433   1.772
10320WAT     H144911   4.203   4.409   1.856
10320WAT     H244912   4.307   4.500   1.794
10321WAT      O44913   2.473   4.314  12.274
10321WAT     H144914   2.427   4.286  12.353
10321WAT     H244915   2.565   4.316  12.299
10322WAT      O44916   4.544   4.372   0.251
10322WAT     H144917   4.631   4.335   0.244
10322WAT     H244918   4.497   4.338   0.174
10323WAT      O44919   5.477   2.934   9.910
10323WAT     H144920   5.451   3.011   9.858
10323WAT     H244921   5.454   2.860   9.854
10324WAT      O44922   2.233   5.304  10.843
10324WAT     H144923   2.186   5.292  10.926
10324WAT     H244924   2.227   5.219  10.800
10325WAT      O44925   5.605   0.216   3.351
10325WAT     H144926   5.698   0.237   3.350
10325WAT     H244927   5.561   0.299   3.368
10326WAT      O44928   0.199   2.317  12.077
10326WAT     H144929   0.111   2.284  12.056
10326WAT     H244930   0.245   2.241  12.114
10327WAT      O44931   3.304   4.804  12.070
10327WAT     H144932   3.223   4.828  12.025
10327WAT     H244933   3.354   4.885  12.072
10328WAT      O44934   5.847   1.734  10.402
10328WAT     H144935   5.902   1.798  10.356
10328WAT     H244936   5.903   1.657  10.413
10329WAT      O44937   5.635   2.646  10.244
10329WAT     H144938   5.685   2.565  10.255
10329WAT     H244939   5.700   2.716  10.251
10330WAT      O44940   1.651   4.745   2.518
10330WAT     H144941   1.736   4.724   2.557
10330WAT     H244942   1.606   4.797   2.584
10331WAT      O44943   5.654   0.026   8.537
10331WAT     H144944   5.727   0.045   8.595
10331WAT     H244945   5.576   0.035   8.592
10332WAT      O44946   4.259   0.521  12.454
10332WAT     H144947   4.285   0.457  12.521
10332WAT     H244948   4.326   0.589  12.458
10333WAT      O44949   5.573   3.871   3.828
10333WAT     H144950   5.651   3.816   3.826
10333WAT     H244951   5.565   3.899   3.919
10334WAT      O44952   4.778   5.570   3.023
10334WAT     H144953   4.693   5.614   3.018
10334WAT     H244954   4.759   5.478   3.004
10335WAT      O44955   5.590   0.997   0.213
10335WAT     H144956   5.620   0.919   0.259
10335WAT     H244957   5.619   1.070   0.267
10336WAT      O44958   3.337   0.216   0.124
10336WAT     H144959   3.282   0.294   0.138
10336WAT     H244960   3.314   0.158   0.197
10337WAT      O44961   3.698   2.246   2.515
10337WAT     H144962   3.732   2.245   2.426
10337WAT     H244963   3.776   2.235   2.570
10338WAT      O44964   0.170   5.006   9.035
10338WAT     H144965   0.160   4.912   9.015
10338WAT     H244966   0.238   5.009   9.102
10339WAT      O44967   2.257   0.559  12.332
10339WAT     H144968   2.185   0.537  12.390
10339WAT     H244969   2.268   0.654  12.342
10340WAT      O44970   2.147   5.204   1.059
10340WAT     H144971   2.063   5.239   1.089
10340WAT     H244972   2.190   5.174   1.139
10341WAT      O44973   1.889   0.084  10.084
10341WAT     H144974   1.880   0.148  10.014
10341WAT     H244975   1.872   0.134  10.164
10342WAT      O44976   3.382   1.866   8.512
10342WAT     H144977   3.423   1.801   8.568
10342WAT     H244978   3.406   1.840   8.423
10343WAT      O44979   2.250   1.499   9.126
10343WAT     H144980   2.256   1.516   9.220
10343WAT     H244981   2.272   1.583   9.085
10344WAT      O44982   0.537   1.277   2.051
10344WAT     H144983   0.566   1.357   2.094
10344WAT     H244984   0.604   1.259   1.985
10345WAT      O44985   3.720   3.508   4.282
10345WAT     H144986   3.732   3.586   4.228
10345WAT     H244987   3.747   3.436   4.226
10346WAT      O44988   1.024   0.947   4.314
10346WAT     H144989   0.980   0.965   4.231
10346WAT     H244990   1.108   0.992   4.308
10347WAT      O44991   1.584   4.166   3.579
10347WAT     H144992   1.629   4.082   3.591
10347WAT     H244993   1.529   4.176   3.657
10348WAT      O44994   3.405   0.810   3.745
10348WAT     H144995   3.500   0.814   3.737
10348WAT     H244996   3.385   0.716   3.744
10349WAT      O44997   2.218   1.924   2.161
10349WAT     H144998   2.297   1.886   2.124
10349WAT     H244999   2.149   1.899   2.099
10350WAT      O45000   2.080   3.829   9.098
10350WAT     H145001   2.093   3.782   9.016
10350WAT     H245002   2.132   3.781   9.162
10351WAT      O45003   3.484   3.945   4.780
10351WAT     H145004   3.483   3.989   4.695
10351WAT     H245005   3.419   3.992   4.832
10352WAT      O45006   1.987   1.215  11.807
10352WAT     H145007   2.081   1.215  11.823
10352WAT     H245008   1.960   1.124  11.824
10353WAT      O45009   4.455   0.469   1.255
10353WAT     H145010   4.442   0.378   1.228
10353WAT     H245011   4.533   0.497   1.207
10354WAT      O45012   1.622   6.227   9.587
10354WAT     H145013   1.631   6.132   9.574
10354WAT     H245014   1.711   6.257   9.603
10355WAT      O45015   5.950   3.914  10.267
10355WAT     H145016   5.935   3.857  10.342
10355WAT     H245017   5.988   3.856  10.201
10356WAT      O45018   1.251   5.441   8.196
10356WAT     H145019   1.195   5.471   8.267
10356WAT     H245020   1.246   5.511   8.131
10357WAT      O45021   5.435   5.222  10.218
10357WAT     H145022   5.530   5.210  10.220
10357WAT     H245023   5.403   5.146  10.169
10358WAT      O45024   4.395   3.114   1.639
10358WAT     H145025   4.460   3.146   1.702
10358WAT     H245026   4.427   3.145   1.554
10359WAT      O45027   2.187   0.224   3.217
10359WAT     H145028   2.124   0.276   3.266
10359WAT     H245029   2.148   0.138   3.210
10360WAT      O45030   5.127   2.220   4.152
10360WAT     H145031   5.076   2.258   4.079
10360WAT     H245032   5.126   2.288   4.219
10361WAT      O45033   5.713   3.188  10.700
10361WAT     H145034   5.645   3.252  10.679
10361WAT     H245035   5.791   3.220  10.656
10362WAT      O45036   4.770   0.240   4.495
10362WAT     H145037   4.828   0.315   4.484
10362WAT     H245038   4.687   0.267   4.455
10363WAT      O45039   0.704   1.374   4.124
10363WAT     H145040   0.638   1.442   4.138
10363WAT     H245041   0.771   1.416   4.069
10364WAT      O45042   1.676   3.741  11.611
10364WAT     H145043   1.660   3.833  11.632
10364WAT     H245044   1.589   3.705  11.591
10365WAT      O45045   5.228   4.377   0.773
10365WAT     H145046   5.151   4.320   0.774
10365WAT     H245047   5.270   4.361   0.858
10366WAT      O45048   5.032   5.896  11.185
10366WAT     H145049   4.983   5.970  11.147
10366WAT     H245050   4.993   5.818  11.146
10367WAT      O45051   5.273   4.236   0.481
10367WAT     H145052   5.253   4.327   0.459
10367WAT     H245053   5.275   4.191   0.397
10368WAT      O45054   0.607   5.351   0.531
10368WAT     H145055   0.593   5.380   0.441
10368WAT     H245056   0.541   5.283   0.545
10369WAT      O45057   4.064   4.645   0.568
10369WAT     H145058   4.086   4.734   0.594
10369WAT     H245059   4.104   4.634   0.482
10370WAT      O45060   1.802   5.674   0.855
10370WAT     H145061   1.789   5.607   0.788
10370WAT     H245062   1.895   5.698   0.846
10371WAT      O45063   4.411   3.134   9.039
10371WAT     H145064   4.321   3.162   9.022
10371WAT     H245065   4.464   3.211   9.019
10372WAT      O45066   0.034   5.887   3.891
10372WAT     H145067   0.041   5.937   3.809
10372WAT     H245068   0.093   5.932   3.952
10373WAT      O45069   0.614   5.523  11.396
10373WAT     H145070   0.593   5.432  11.375
10373WAT     H245071   0.592   5.572  11.317
10374WAT      O45072   2.716   3.480   1.024
10374WAT     H145073   2.738   3.543   1.093
10374WAT     H245074   2.621   3.483   1.018
10375WAT      O45075   3.552   4.641   4.578
10375WAT     H145076   3.635   4.668   4.618
10375WAT     H245077   3.570   4.555   4.541
10376WAT      O45078   6.079   5.560   2.176
10376WAT     H145079   6.056   5.489   2.236
10376WAT     H245080   5.998   5.611   2.167
10377WAT      O45081   2.491   3.822   1.654
10377WAT     H145082   2.509   3.820   1.560
10377WAT     H245083   2.576   3.811   1.695
10378WAT      O45084   3.618   6.042   2.832
10378WAT     H145085   3.620   6.111   2.898
10378WAT     H245086   3.625   5.960   2.881
10379WAT      O45087   4.423   2.347   8.820
10379WAT     H145088   4.457   2.427   8.781
10379WAT     H245089   4.415   2.367   8.914
10380WAT      O45090   4.248   2.663  12.096
10380WAT     H145091   4.249   2.571  12.068
10380WAT     H245092   4.168   2.699  12.057
10381WAT      O45093   4.804   4.203   8.744
10381WAT     H145094   4.831   4.117   8.713
10381WAT     H245095   4.787   4.253   8.664
10382WAT      O45096   5.779   5.800   8.330
10382WAT     H145097   5.739   5.855   8.263
10382WAT     H245098   5.717   5.802   8.403
10383WAT      O45099   5.268   4.518   0.438
10383WAT     H145100   5.191   4.575   0.448
10383WAT     H245101   5.338   4.578   0.411
10384WAT      O45102   5.285   0.722   8.609
10384WAT     H145103   5.295   0.630   8.587
10384WAT     H245104   5.218   0.755   8.549
10385WAT      O45105   6.150   0.110   4.239
10385WAT     H145106   6.083   0.047   4.268
10385WAT     H245107   6.233   0.067   4.260
10386WAT      O45108   3.023   3.978   4.474
10386WAT     H145109   3.108   3.949   4.506
10386WAT     H245110   3.039   4.010   4.386
10387WAT      O45111   1.371   4.178   3.769
10387WAT     H145112   1.397   4.218   3.852
10387WAT     H245113   1.348   4.088   3.792
10388WAT      O45114   0.413   0.905   9.099
10388WAT     H145115   0.409   0.829   9.041
10388WAT     H245116   0.501   0.902   9.136
10389WAT      O45117   5.003   2.077   0.436
10389WAT     H145118   4.946   2.058   0.361
10389WAT     H245119   4.973   2.162   0.468
10390WAT      O45120   3.975   1.551  10.331
10390WAT     H145121   3.951   1.600  10.410
10390WAT     H245122   3.931   1.597  10.259
10391WAT      O45123   0.311   2.622  10.261
10391WAT     H145124   0.263   2.676  10.199
10391WAT     H245125   0.381   2.582  10.209
10392WAT      O45126   1.400   0.537  11.708
10392WAT     H145127   1.413   0.487  11.789
10392WAT     H245128   1.452   0.491  11.642
10393WAT      O45129   5.338   0.903   2.764
10393WAT     H145130   5.286   0.837   2.718
10393WAT     H245131   5.428   0.873   2.757
10394WAT      O45132   2.822   3.403  12.182
10394WAT     H145133   2.914   3.409  12.209
10394WAT     H245134   2.809   3.312  12.157
10395WAT      O45135   1.988   0.943  11.896
10395WAT     H145136   2.065   0.890  11.874
10395WAT     H245137   1.917   0.901  11.848
10396WAT      O45138   4.448   1.059   2.076
10396WAT     H145139   4.358   1.040   2.101
10396WAT     H245140   4.441   1.130   2.013
10397WAT      O45141   6.064   4.985  11.456
10397WAT     H145142   6.131   5.032  11.505
10397WAT     H245143   6.009   5.055  11.419
10398WAT      O45144   6.033   0.325   0.433
10398WAT     H145145   6.047   0.233   0.455
10398WAT     H245146   6.051   0.331   0.339
10399WAT      O45147   4.753   4.241   9.007
10399WAT     H145148   4.662   4.210   9.007
10399WAT     H245149   4.778   4.241   8.914
10400WAT      O45150   0.617   6.025  11.155
10400WAT     H145151   0.651   6.063  11.074
10400WAT     H245152   0.684   6.044  11.220
10401WAT      O45153   1.666   5.508   4.349
10401WAT     H145154   1.738   5.556   4.390
10401WAT     H245155   1.607   5.487   4.421
10402WAT      O45156   2.725   0.507   0.054
10402WAT     H145157   2.666   0.575   0.087
10402WAT     H245158   2.683   0.425   0.078
10403WAT      O45159   1.629   3.311   2.667
10403WAT     H145160   1.620   3.404   2.648
10403WAT     H245161   1.708   3.305   2.721
10404WAT      O45162   5.660   4.932  12.615
10404WAT     H145163   5.657   4.885  12.698
10404WAT     H245164   5.570   4.930  12.583
10405WAT      O45165   6.070   4.858   1.045
10405WAT     H145166   6.059   4.939   1.094
10405WAT     H245167   6.137   4.810   1.094
10406WAT      O45168   0.493   3.066  10.067
10406WAT     H145169   0.451   3.070   9.982
10406WAT     H245170   0.545   2.986  10.065
10407WAT      O45171   5.422   1.772   0.592
10407WAT     H145172   5.423   1.676   0.600
10407WAT     H245173   5.386   1.788   0.504
10408WAT      O45174   5.305   5.229   9.831
10408WAT     H145175   5.393   5.198   9.854
10408WAT     H245176   5.308   5.238   9.735
10409WAT      O45177   2.978   5.418  10.945
10409WAT     H145178   2.904   5.357  10.942
10409WAT     H245179   2.937   5.504  10.958
10410WAT      O45180   1.322   5.555   8.508
10410WAT     H145181   1.355   5.628   8.454
10410WAT     H245182   1.388   5.545   8.577
10411WAT      O45183   1.382   4.170  11.509
10411WAT     H145184   1.447   4.230  11.546
10411WAT     H245185   1.321   4.227  11.462
10412WAT      O45186   1.156   3.398   9.453
10412WAT     H145187   1.097   3.471   9.471
10412WAT     H245188   1.152   3.385   9.359
10413WAT      O45189   0.564   4.217   2.411
10413WAT     H145190   0.620   4.267   2.352
10413WAT     H245191   0.499   4.281   2.442
10414WAT      O45192   5.775   2.152   7.875
10414WAT     H145193   5.756   2.206   7.798
10414WAT     H245194   5.824   2.078   7.841
10415WAT      O45195   0.297   5.716  10.869
10415WAT     H145196   0.268   5.794  10.823
10415WAT     H245197   0.262   5.643  10.818
10416WAT      O45198   5.776   0.168  10.156
10416WAT     H145199   5.861   0.197  10.188
10416WAT     H245200   5.713   0.214  10.210
10417WAT      O45201   2.278  -0.019   2.788
10417WAT     H145202   2.200   0.000   2.840
10417WAT     H245203   2.263   0.026   2.705
10418WAT      O45204   2.652   5.009   8.772
10418WAT     H145205   2.695   5.047   8.696
10418WAT     H245206   2.564   5.047   8.771
10419WAT      O45207   4.285   0.729   8.538
10419WAT     H145208   4.280   0.823   8.517
10419WAT     H245209   4.373   0.703   8.514
10420WAT      O45210   2.333   2.884  11.421
10420WAT     H145211   2.291   2.801  11.439
10420WAT     H245212   2.422   2.874  11.457
10421WAT      O45213   1.337   0.466   2.223
10421WAT     H145214   1.254   0.432   2.258
10421WAT     H245215   1.402   0.442   2.289
10422WAT      O45216   4.196   1.313   2.198
10422WAT     H145217   4.291   1.326   2.192
10422WAT     H245218   4.160   1.369   2.130
10423WAT      O45219   1.876   5.231   4.881
10423WAT     H145220   1.785   5.255   4.897
10423WAT     H245221   1.925   5.311   4.897
10424WAT      O45222   0.916   0.557   2.193
10424WAT     H145223   0.939   0.546   2.285
10424WAT     H245224   0.995   0.532   2.146
10425WAT      O45225   0.613   3.169  11.222
10425WAT     H145226   0.696   3.201  11.257
10425WAT     H245227   0.614   3.197  11.130
10426WAT      O45228   3.681   1.359   1.550
10426WAT     H145229   3.726   1.428   1.598
10426WAT     H245230   3.636   1.308   1.618
10427WAT      O45231   1.564   3.846   1.246
10427WAT     H145232   1.538   3.909   1.314
10427WAT     H245233   1.593   3.901   1.173
10428WAT      O45234   4.358   0.028   8.726
10428WAT     H145235   4.429   0.083   8.693
10428WAT     H245236   4.341  -0.034   8.655
10429WAT      O45237   1.524   3.128  10.206
10429WAT     H145238   1.615   3.158  10.208
10429WAT     H245239   1.479   3.189  10.148
10430WAT      O45240   4.398   2.182   7.318
10430WAT     H145241   4.405   2.241   7.243
10430WAT     H245242   4.304   2.182   7.339
10431WAT      O45243   0.607   4.466   1.022
10431WAT     H145244   0.700   4.458   1.045
10431WAT     H245245   0.573   4.377   1.024
10432WAT      O45246   2.122   5.007   1.400
10432WAT     H145247   2.140   4.967   1.315
10432WAT     H245248   2.027   4.996   1.411
10433WAT      O45249   2.757   4.021   9.599
10433WAT     H145250   2.846   4.052   9.618
10433WAT     H245251   2.732   3.972   9.677
10434WAT      O45252   3.264   2.674  10.815
10434WAT     H145253   3.206   2.613  10.770
10434WAT     H245254   3.240   2.760  10.779
10435WAT      O45255   4.977   4.909   4.014
10435WAT     H145256   5.039   4.960   4.065
10435WAT     H245257   5.000   4.818   4.032
10436WAT      O45258   1.227   4.818  12.490
10436WAT     H145259   1.241   4.784  12.578
10436WAT     H245260   1.315   4.826  12.453
10437WAT      O45261   0.627   2.782   9.714
10437WAT     H145262   0.575   2.779   9.634
10437WAT     H245263   0.694   2.848   9.697
10438WAT      O45264   4.132   5.701   9.451
10438WAT     H145265   4.174   5.745   9.377
10438WAT     H245266   4.057   5.756   9.472
10439WAT      O45267   1.326   0.159  11.368
10439WAT     H145268   1.378   0.094  11.413
10439WAT     H245269   1.390   0.211  11.319
10440WAT      O45270   6.145   5.874   1.195
10440WAT     H145271   6.237   5.900   1.197
10440WAT     H245272   6.147   5.779   1.181
10441WAT      O45273   1.110   0.487   1.982
10441WAT     H145274   1.103   0.495   1.887
10441WAT     H245275   1.179   0.422   1.996
10442WAT      O45276   5.122   5.404  11.785
10442WAT     H145277   5.051   5.466  11.797
10442WAT     H245278   5.134   5.399  11.690
10443WAT      O45279   4.446   3.426   8.551
10443WAT     H145280   4.522   3.375   8.581
10443WAT     H245281   4.373   3.395   8.605
10444WAT      O45282   4.788   1.805   7.737
10444WAT     H145283   4.773   1.811   7.831
10444WAT     H245284   4.796   1.711   7.720
10445WAT      O45285   0.638   2.233   9.702
10445WAT     H145286   0.551   2.194   9.697
10445WAT     H245287   0.698   2.162   9.678
10446WAT      O45288   5.620   5.034   9.429
10446WAT     H145289   5.681   5.104   9.454
10446WAT     H245290   5.615   4.978   9.506
10447WAT      O45291   5.727  -0.008  10.992
10447WAT     H145292   5.707   0.032  10.907
10447WAT     H245293   5.714   0.063  11.055
10448WAT      O45294   4.612   2.523   3.391
10448WAT     H145295   4.594   2.511   3.484
10448WAT     H245296   4.525   2.525   3.350
10449WAT      O45297   2.101   3.506  11.712
10449WAT     H145298   2.060   3.587  11.684
10449WAT     H245299   2.095   3.448  11.636
10450WAT      O45300   0.509   5.602   5.096
10450WAT     H145301   0.471   5.616   5.009
10450WAT     H245302   0.451   5.650   5.155
10451WAT      O45303   3.348   5.537  11.381
10451WAT     H145304   3.295   5.583  11.316
10451WAT     H245305   3.432   5.582  11.380
10452WAT      O45306   3.529   1.222   9.362
10452WAT     H145307   3.450   1.173   9.339
10452WAT     H245308   3.580   1.226   9.281
10453WAT      O45309   6.126   3.808   2.698
10453WAT     H145310   6.214   3.845   2.684
10453WAT     H245311   6.139   3.744   2.768
10454WAT      O45312   0.798   4.107  10.957
10454WAT     H145313   0.806   4.071  10.869
10454WAT     H245314   0.762   4.036  11.009
10455WAT      O45315   3.355   2.888  11.724
10455WAT     H145316   3.396   2.810  11.686
10455WAT     H245317   3.425   2.953  11.726
10456WAT      O45318   4.092   1.799   8.865
10456WAT     H145319   4.014   1.766   8.821
10456WAT     H245320   4.106   1.886   8.827
10457WAT      O45321   1.495   1.909   2.534
10457WAT     H145322   1.585   1.891   2.558
10457WAT     H245323   1.475   1.993   2.576
10458WAT      O45324   4.075   1.297   2.712
10458WAT     H145325   4.026   1.349   2.648
10458WAT     H245326   4.159   1.341   2.719
10459WAT      O45327   2.192   3.233   8.710
10459WAT     H145328   2.186   3.153   8.659
10459WAT     H245329   2.140   3.297   8.662
10460WAT      O45330   6.196   1.910  11.198
10460WAT     H145331   6.161   1.829  11.237
10460WAT     H245332   6.221   1.885  11.109
10461WAT      O45333   3.788   1.547   0.266
10461WAT     H145334   3.883   1.557   0.256
10461WAT     H245335   3.765   1.479   0.203
10462WAT      O45336   5.938   1.355   7.684
10462WAT     H145337   6.017   1.402   7.657
10462WAT     H245338   5.940   1.273   7.635
10463WAT      O45339   5.300   6.066  12.246
10463WAT     H145340   5.341   6.113  12.174
10463WAT     H245341   5.215   6.039  12.212
10464WAT      O45342   2.946   3.278  10.278
10464WAT     H145343   2.949   3.371  10.301
10464WAT     H245344   3.031   3.260  10.238
10465WAT      O45345   3.223   2.523  12.037
10465WAT     H145346   3.140   2.510  11.991
10465WAT     H245347   3.250   2.612  12.013
10466WAT      O45348   4.732   1.070   2.999
10466WAT     H145349   4.726   1.054   3.093
10466WAT     H245350   4.655   1.123   2.978
10467WAT      O45351   1.189   2.142   2.748
10467WAT     H145352   1.181   2.151   2.843
10467WAT     H245353   1.238   2.060   2.736
10468WAT      O45354   0.957   2.009   7.915
10468WAT     H145355   0.952   1.914   7.902
10468WAT     H245356   0.870   2.033   7.946
10469WAT      O45357   5.189   1.696   1.526
10469WAT     H145358   5.127   1.736   1.464
10469WAT     H245359   5.273   1.698   1.480
10470WAT      O45360   2.430   4.638   0.925
10470WAT     H145361   2.450   4.545   0.918
10470WAT     H245362   2.474   4.667   1.005
10471WAT      O45363   1.448   1.742   1.166
10471WAT     H145364   1.403   1.770   1.246
10471WAT     H245365   1.535   1.782   1.173
10472WAT      O45366   5.758   6.079   3.957
10472WAT     H145367   5.685   6.031   3.918
10472WAT     H245368   5.746   6.067   4.052
10473WAT      O45369   0.742   3.957   2.984
10473WAT     H145370   0.816   3.998   2.939
10473WAT     H245371   0.731   4.009   3.064
10474WAT      O45372   5.611   2.917   3.324
10474WAT     H145373   5.628   2.879   3.238
10474WAT     H245374   5.664   2.997   3.326
10475WAT      O45375   0.685   1.974   4.750
10475WAT     H145376   0.752   1.919   4.709
10475WAT     H245377   0.652   1.921   4.822
10476WAT      O45378   3.163   5.505   9.302
10476WAT     H145379   3.251   5.485   9.269
10476WAT     H245380   3.175   5.584   9.355
10477WAT      O45381   2.836   1.187   3.151
10477WAT     H145382   2.921   1.143   3.151
10477WAT     H245383   2.836   1.241   3.230
10478WAT      O45384   0.355   3.616   3.737
10478WAT     H145385   0.423   3.683   3.730
10478WAT     H245386   0.278   3.655   3.694
10479WAT      O45387   1.115   3.615   0.532
10479WAT     H145388   1.158   3.530   0.526
10479WAT     H245389   1.097   3.627   0.625
10480WAT      O45390   2.448   1.905  11.949
10480WAT     H145391   2.525   1.948  11.987
10480WAT     H245392   2.446   1.934  11.858
10481WAT      O45393   1.316   3.236   3.341
10481WAT     H145394   1.406   3.261   3.324
10481WAT     H245395   1.307   3.241   3.437
10482WAT      O45396   3.800   3.154   1.506
10482WAT     H145397   3.775   3.105   1.428
10482WAT     H245398   3.721   3.154   1.561
10483WAT      O45399   6.188   3.261   2.280
10483WAT     H145400   6.144   3.207   2.214
10483WAT     H245401   6.277   3.226   2.284
10484WAT      O45402   0.954   5.770   1.461
10484WAT     H145403   0.976   5.862   1.477
10484WAT     H245404   1.037   5.723   1.475
10485WAT      O45405   2.298   3.301  10.127
10485WAT     H145406   2.378   3.353  10.121
10485WAT     H245407   2.278   3.298  10.220
10486WAT      O45408   0.892   5.521   0.192
10486WAT     H145409   0.938   5.506   0.274
10486WAT     H245410   0.885   5.435   0.151
10487WAT      O45411   5.652   4.329   2.342
10487WAT     H145412   5.638   4.235   2.346
10487WAT     H245413   5.733   4.343   2.390
10488WAT      O45414   1.525   3.258   3.009
10488WAT     H145415   1.536   3.190   3.076
10488WAT     H245416   1.442   3.300   3.031
10489WAT      O45417   5.370   0.921  12.227
10489WAT     H145418   5.374   1.009  12.266
10489WAT     H245419   5.444   0.874  12.265
10490WAT      O45420   6.184   1.564   1.946
10490WAT     H145421   6.185   1.582   2.040
10490WAT     H245422   6.091   1.570   1.922
10491WAT      O45423   2.034   4.193   4.496
10491WAT     H145424   1.998   4.183   4.584
10491WAT     H245425   2.129   4.194   4.509
10492WAT      O45426   2.462   2.201   2.438
10492WAT     H145427   2.419   2.266   2.494
10492WAT     H245428   2.391   2.148   2.403
10493WAT      O45429   2.750   0.295  11.358
10493WAT     H145430   2.682   0.323  11.296
10493WAT     H245431   2.706   0.293  11.443
10494WAT      O45432   2.028   4.738   7.823
10494WAT     H145433   1.946   4.786   7.832
10494WAT     H245434   2.094   4.806   7.809
10495WAT      O45435   3.815   2.041  10.828
10495WAT     H145436   3.910   2.040  10.828
10495WAT     H245437   3.790   1.962  10.877
10496WAT      O45438   5.043   2.830   3.217
10496WAT     H145439   4.994   2.748   3.225
10496WAT     H245440   5.117   2.809   3.161
10497WAT      O45441   6.031   1.077   8.885
10497WAT     H145442   5.961   1.018   8.914
10497WAT     H245443   6.033   1.066   8.790
10498WAT      O45444   3.361   0.612   9.414
10498WAT     H145445   3.355   0.697   9.370
10498WAT     H245446   3.353   0.548   9.344
10499WAT      O45447   5.965   0.569   1.694
10499WAT     H145448   5.880   0.524   1.690
10499WAT     H245449   6.005   0.536   1.775
10500WAT      O45450   1.508   3.994   1.457
10500WAT     H145451   1.489   3.989   1.551
10500WAT     H245452   1.476   4.080   1.430
10501WAT      O45453   5.269   0.294   2.516
10501WAT     H145454   5.224   0.354   2.576
10501WAT     H245455   5.257   0.334   2.429
10502WAT      O45456   5.332   0.449   8.553
10502WAT     H145457   5.427   0.437   8.552
10502WAT     H245458   5.298   0.375   8.503
10503WAT      O45459   4.937   4.374   4.232
10503WAT     H145460   4.856   4.425   4.226
10503WAT     H245461   5.000   4.435   4.270
10504WAT      O45462   5.041   4.214   9.118
10504WAT     H145463   5.090   4.290   9.149
10504WAT     H245464   4.950   4.244   9.115
10505WAT      O45465   1.551   0.392  11.528
10505WAT     H145466   1.536   0.352  11.442
10505WAT     H245467   1.584   0.321  11.582
10506WAT      O45468   0.758   0.321   3.390
10506WAT     H145469   0.834   0.293   3.339
10506WAT     H245470   0.791   0.390   3.447
10507WAT      O45471   6.055   5.404   2.941
10507WAT     H145472   6.072   5.399   2.847
10507WAT     H245473   6.090   5.490   2.967
10508WAT      O45474   0.810   0.600   0.078
10508WAT     H145475   0.832   0.652   0.156
10508WAT     H245476   0.866   0.523   0.084
10509WAT      O45477   2.314   5.054   8.115
10509WAT     H145478   2.295   5.121   8.049
10509WAT     H245479   2.366   4.989   8.069
10510WAT      O45480   2.469   2.318  10.882
10510WAT     H145481   2.411   2.382  10.925
10510WAT     H245482   2.514   2.368  10.815
10511WAT      O45483   4.578   0.760  10.043
10511WAT     H145484   4.568   0.800  10.129
10511WAT     H245485   4.523   0.814   9.985
10512WAT      O45486   0.351   4.861   9.958
10512WAT     H145487   0.318   4.885   9.871
10512WAT     H245488   0.416   4.793   9.941
10513WAT      O45489   0.255   2.158   1.496
10513WAT     H145490   0.191   2.091   1.519
10513WAT     H245491   0.263   2.212   1.574
10514WAT      O45492   4.304   6.061   4.541
10514WAT     H145493   4.375   5.997   4.536
10514WAT     H245494   4.347   6.141   4.572
10515WAT      O45495   6.089   2.938   0.925
10515WAT     H145496   5.995   2.950   0.911
10515WAT     H245497   6.110   2.998   0.997
10516WAT      O45498   5.891   2.024   4.472
10516WAT     H145499   5.825   2.089   4.448
10516WAT     H245500   5.841   1.946   4.496
10517WAT      O45501   3.294   5.901   8.379
10517WAT     H145502   3.294   5.969   8.313
10517WAT     H245503   3.238   5.832   8.343
10518WAT      O45504   0.754   3.448   3.142
10518WAT     H145505   0.794   3.417   3.061
10518WAT     H245506   0.776   3.541   3.146
10519WAT      O45507   4.357   1.746  12.025
10519WAT     H145508   4.387   1.748  11.934
10519WAT     H245509   4.269   1.710  12.020
10520WAT      O45510   2.856   4.843   8.828
10520WAT     H145511   2.887   4.887   8.908
10520WAT     H245512   2.795   4.905   8.788
10521WAT      O45513   2.951   4.523   3.951
10521WAT     H145514   2.916   4.587   3.889
10521WAT     H245515   2.998   4.575   4.016
10522WAT      O45516   0.801   6.195  11.560
10522WAT     H145517   0.726   6.246  11.592
10522WAT     H245518   0.810   6.222  11.469
10523WAT      O45519   0.991   3.347   0.597
10523WAT     H145520   1.007   3.292   0.673
10523WAT     H245521   1.074   3.346   0.549
10524WAT      O45522   2.976   1.867   4.283
10524WAT     H145523   3.048   1.805   4.269
10524WAT     H245524   2.969   1.873   4.379
10525WAT      O45525   4.723   5.709  10.816
10525WAT     H145526   4.697   5.632  10.866
10525WAT     H245527   4.796   5.679  10.761
10526WAT      O45528   3.124   1.736   1.336
10526WAT     H145529   3.206   1.729   1.288
10526WAT     H245530   3.131   1.671   1.405
10527WAT      O45531   3.291   1.312   2.711
10527WAT     H145532   3.262   1.336   2.799
10527WAT     H245533   3.280   1.217   2.707
10528WAT      O45534   2.784   5.232   9.285
10528WAT     H145535   2.744   5.188   9.211
10528WAT     H245536   2.866   5.268   9.251
10529WAT      O45537   3.571   5.470   1.571
10529WAT     H145538   3.507   5.441   1.506
10529WAT     H245539   3.655   5.460   1.527
10530WAT      O45540   5.495   1.331  10.903
10530WAT     H145541   5.574   1.335  10.850
10530WAT     H245542   5.518   1.275  10.977
10531WAT      O45543   3.447   3.274   9.388
10531WAT     H145544   3.455   3.179   9.398
10531WAT     H245545   3.381   3.299   9.453
10532WAT      O45546   0.479   5.473   8.619
10532WAT     H145547   0.485   5.478   8.714
10532WAT     H245548   0.418   5.543   8.595
10533WAT      O45549   6.133   0.850   3.491
10533WAT     H145550   6.086   0.827   3.411
10533WAT     H245551   6.224   0.857   3.464
10534WAT      O45552   5.299   3.008  10.331
10534WAT     H145553   5.280   2.960  10.412
10534WAT     H245554   5.352   2.947  10.279
10535WAT      O45555   5.658   0.888  11.257
10535WAT     H145556   5.705   0.970  11.272
10535WAT     H245557   5.566   0.909  11.273
10536WAT      O45558   4.458   4.925   1.865
10536WAT     H145559   4.384   4.972   1.826
10536WAT     H245560   4.534   4.960   1.819
10537WAT      O45561   5.343   2.119   7.714
10537WAT     H145562   5.348   2.035   7.761
10537WAT     H245563   5.412   2.113   7.648
10538WAT      O45564   4.536   4.189   2.222
10538WAT     H145565   4.531   4.211   2.129
10538WAT     H245566   4.474   4.116   2.233
10539WAT      O45567   6.007   4.804  11.771
10539WAT     H145568   6.073   4.797  11.703
10539WAT     H245569   6.043   4.755  11.845
10540WAT      O45570   5.665   4.160  11.546
10540WAT     H145571   5.711   4.147  11.464
10540WAT     H245572   5.623   4.246  11.536
10541WAT      O45573   4.548   2.192   8.633
10541WAT     H145574   4.497   2.250   8.690
10541WAT     H245575   4.510   2.105   8.647
10542WAT      O45576   1.900   4.332   1.843
10542WAT     H145577   1.978   4.347   1.789
10542WAT     H245578   1.864   4.249   1.811
10543WAT      O45579   4.464   1.546  11.765
10543WAT     H145580   4.460   1.641  11.759
10543WAT     H245581   4.557   1.526  11.775
10544WAT      O45582   2.556   0.973   1.586
10544WAT     H145583   2.498   0.980   1.510
10544WAT     H245584   2.589   0.883   1.583
10545WAT      O45585   2.533   4.803  12.029
10545WAT     H145586   2.519   4.718  12.072
10545WAT     H245587   2.459   4.812  11.969
10546WAT      O45588   2.791   5.608   3.569
10546WAT     H145589   2.759   5.521   3.592
10546WAT     H245590   2.792   5.655   3.652
10547WAT      O45591   4.269   1.339   1.118
10547WAT     H145592   4.321   1.269   1.157
10547WAT     H245593   4.179   1.323   1.149
10548WAT      O45594   0.507   5.002  12.551
10548WAT     H145595   0.468   4.948  12.483
10548WAT     H245596   0.445   4.998  12.624
10549WAT      O45597   0.387   5.012   1.575
10549WAT     H145598   0.427   5.099   1.574
10549WAT     H245599   0.444   4.960   1.632
10550WAT      O45600   4.031   1.773  11.723
10550WAT     H145601   4.061   1.728  11.802
10550WAT     H245602   4.095   1.843  11.709
10551WAT      O45603   1.081   0.846   5.237
10551WAT     H145604   1.015   0.788   5.275
10551WAT     H245605   1.102   0.806   5.152
10552WAT      O45606   0.861   2.337  10.124
10552WAT     H145607   0.945   2.314  10.083
10552WAT     H245608   0.843   2.426  10.094
10553WAT      O45609   5.196   2.644   3.896
10553WAT     H145610   5.160   2.625   3.982
10553WAT     H245611   5.220   2.736   3.900
10554WAT      O45612   4.487   4.574   8.644
10554WAT     H145613   4.457   4.547   8.557
10554WAT     H245614   4.435   4.522   8.705
10555WAT      O45615   4.305   3.251   9.351
10555WAT     H145616   4.212   3.227   9.351
10555WAT     H245617   4.336   3.229   9.263
10556WAT      O45618   5.922   2.123   0.584
10556WAT     H145619   5.912   2.123   0.489
10556WAT     H245620   5.868   2.197   0.614
10557WAT      O45621   5.611   3.942   1.907
10557WAT     H145622   5.640   4.030   1.931
10557WAT     H245623   5.596   3.897   1.990
10558WAT      O45624   5.348   0.502  11.773
10558WAT     H145625   5.408   0.576  11.777
10558WAT     H245626   5.403   0.427  11.751
10559WAT      O45627   1.100   3.374   2.337
10559WAT     H145628   1.014   3.407   2.365
10559WAT     H245629   1.134   3.442   2.280
10560WAT      O45630   1.292   2.232   2.190
10560WAT     H145631   1.387   2.224   2.187
10560WAT     H245632   1.270   2.224   2.283
10561WAT      O45633   2.589   3.442   3.407
10561WAT     H145634   2.498   3.455   3.432
10561WAT     H245635   2.585   3.406   3.319
10562WAT      O45636   3.875   0.435  10.249
10562WAT     H145637   3.842   0.374  10.315
10562WAT     H245638   3.844   0.521  10.277
10563WAT      O45639   2.924   0.640   3.177
10563WAT     H145640   2.995   0.578   3.164
10563WAT     H245641   2.931   0.701   3.103
10564WAT      O45642   0.066   1.645   3.810
10564WAT     H145643   0.014   1.566   3.825
10564WAT     H245644   0.042   1.673   3.721
10565WAT      O45645   3.839   2.597   9.189
10565WAT     H145646   3.747   2.599   9.217
10565WAT     H245647   3.837   2.556   9.102
10566WAT      O45648   6.043   0.583   4.089
10566WAT     H145649   6.086   0.503   4.119
10566WAT     H245650   6.019   0.629   4.169
10567WAT      O45651   5.008   0.656   9.367
10567WAT     H145652   5.018   0.670   9.461
10567WAT     H245653   5.064   0.581   9.347
10568WAT      O45654   3.152   3.133  10.685
10568WAT     H145655   3.078   3.146  10.625
10568WAT     H245656   3.147   3.207  10.745
10569WAT      O45657   2.937   0.360   3.469
10569WAT     H145658   2.961   0.433   3.526
10569WAT     H245659   2.863   0.318   3.513
10570WAT      O45660   5.486   5.699   2.162
10570WAT     H145661   5.475   5.790   2.132
10570WAT     H245662   5.532   5.656   2.090
10571WAT      O45663   0.803   3.671  11.102
10571WAT     H145664   0.877   3.645  11.158
10571WAT     H245665   0.734   3.608  11.123
10572WAT      O45666   4.510   1.818   0.019
10572WAT     H145667   4.484   1.755   0.086
10572WAT     H245668   4.448   1.805  -0.052
10573WAT      O45669   0.795   3.491   3.599
10573WAT     H145670   0.878   3.494   3.551
10573WAT     H245671   0.728   3.500   3.531
10574WAT      O45672   5.305   1.321   8.930
10574WAT     H145673   5.235   1.261   8.955
10574WAT     H245674   5.366   1.318   9.004
10575WAT      O45675   1.640   4.503   2.331
10575WAT     H145676   1.606   4.567   2.393
10575WAT     H245677   1.726   4.537   2.305
10576WAT      O45678   3.625   5.771   0.940
10576WAT     H145679   3.544   5.788   0.988
10576WAT     H245680   3.605   5.796   0.850
10577WAT      O45681   4.656   5.198  11.144
10577WAT     H145682   4.631   5.138  11.073
10577WAT     H245683   4.751   5.196  11.144
10578WAT      O45684   0.115   1.869  10.640
10578WAT     H145685   0.188   1.837  10.692
10578WAT     H245686   0.150   1.878  10.551
10579WAT      O45687   4.966   1.121   9.238
10579WAT     H145688   4.904   1.061   9.195
10579WAT     H245689   4.914   1.163   9.307
10580WAT      O45690   0.190   2.505   1.726
10580WAT     H145691   0.246   2.432   1.698
10580WAT     H245692   0.252   2.571   1.758
10581WAT      O45693   2.596   4.015   0.151
10581WAT     H145694   2.675   4.017   0.205
10581WAT     H245695   2.541   4.085   0.184
10582WAT      O45696   5.582   2.210   1.908
10582WAT     H145697   5.648   2.149   1.875
10582WAT     H245698   5.547   2.167   1.987
10583WAT      O45699   2.856   5.582   0.905
10583WAT     H145700   2.877   5.639   0.830
10583WAT     H245701   2.942   5.553   0.937
10584WAT      O45702   3.379   5.421   2.346
10584WAT     H145703   3.447   5.372   2.298
10584WAT     H245704   3.378   5.382   2.433
10585WAT      O45705   2.545   3.253   8.700
10585WAT     H145706   2.505   3.212   8.777
10585WAT     H245707   2.489   3.229   8.627
10586WAT      O45708   1.058   5.655   8.483
10586WAT     H145709   1.031   5.673   8.392
10586WAT     H245710   1.145   5.616   8.475
10587WAT      O45711   5.147   5.987   1.132
10587WAT     H145712   5.063   6.032   1.119
10587WAT     H245713   5.139   5.907   1.080
10588WAT      O45714   4.550   0.676   1.849
10588WAT     H145715   4.477   0.737   1.863
10588WAT     H245716   4.612   0.724   1.794
10589WAT      O45717   5.012   2.510  12.674
10589WAT     H145718   4.919   2.489  12.687
10589WAT     H245719   5.011   2.598  12.637
10590WAT      O45720   5.908   2.930   2.957
10590WAT     H145721   5.999   2.934   2.929
10590WAT     H245722   5.876   3.020   2.948
10591WAT      O45723   2.087   2.088   1.002
10591WAT     H145724   2.071   2.152   0.933
10591WAT     H245725   2.121   2.011   0.956
10592WAT      O45726   3.153   4.865  11.042
10592WAT     H145727   3.177   4.958  11.040
10592WAT     H245728   3.057   4.865  11.041
10593WAT      O45729   0.967   3.177   3.442
10593WAT     H145730   0.920   3.127   3.376
10593WAT     H245731   0.949   3.132   3.525
10594WAT      O45732   2.079   1.371   2.251
10594WAT     H145733   2.078   1.297   2.190
10594WAT     H245734   2.058   1.333   2.336
10595WAT      O45735   0.849   3.166  12.053
10595WAT     H145736   0.834   3.087  12.105
10595WAT     H245737   0.788   3.158  11.979
10596WAT      O45738   4.471   1.551   8.867
10596WAT     H145739   4.414   1.592   8.932
10596WAT     H245740   4.421   1.558   8.785
10597WAT      O45741   5.448   4.485  11.633
10597WAT     H145742   5.384   4.557  11.632
10597WAT     H245743   5.396   4.406  11.618
10598WAT      O45744   5.426   1.792   1.198
10598WAT     H145745   5.510   1.836   1.182
10598WAT     H245746   5.382   1.794   1.113
10599WAT      O45747   0.574   3.420   9.038
10599WAT     H145748   0.522   3.498   9.057
10599WAT     H245749   0.653   3.430   9.090
10600WAT      O45750   5.803   3.313   0.308
10600WAT     H145751   5.752   3.352   0.237
10600WAT     H245752   5.766   3.349   0.388
10601WAT      O45753   4.455   2.727   2.108
10601WAT     H145754   4.427   2.652   2.056
10601WAT     H245755   4.533   2.697   2.154
10602WAT      O45756   2.450   3.440   1.383
10602WAT     H145757   2.363   3.412   1.412
10602WAT     H245758   2.510   3.403   1.447
10603WAT      O45759   2.072   3.324  11.928
10603WAT     H145760   2.097   3.390  11.864
10603WAT     H245761   2.154   3.302  11.974
10604WAT      O45762   3.897   5.208   1.022
10604WAT     H145763   3.993   5.206   1.020
10604WAT     H245764   3.876   5.226   1.114
10605WAT      O45765   1.636   5.442   2.463
10605WAT     H145766   1.702   5.380   2.433
10605WAT     H245767   1.561   5.427   2.405
10606WAT      O45768   4.681   0.362  10.981
10606WAT     H145769   4.633   0.400  11.055
10606WAT     H245770   4.616   0.355  10.911
10607WAT      O45771   1.965   4.681   2.578
10607WAT     H145772   2.012   4.728   2.648
10607WAT     H245773   2.031   4.621   2.543
10608WAT      O45774   2.149   5.794   4.721
10608WAT     H145775   2.167   5.754   4.636
10608WAT     H245776   2.103   5.876   4.699
10609WAT      O45777   6.033   5.634   3.398
10609WAT     H145778   5.963   5.605   3.457
10609WAT     H245779   5.988   5.677   3.325
10610WAT      O45780   3.607   5.783   2.948
10610WAT     H145781   3.696   5.768   2.917
10610WAT     H245782   3.616   5.805   3.040
10611WAT      O45783   1.439   1.368   3.267
10611WAT     H145784   1.517   1.326   3.304
10611WAT     H245785   1.466   1.459   3.253
10612WAT      O45786   3.392   5.499  12.015
10612WAT     H145787   3.440   5.461  11.941
10612WAT     H245788   3.334   5.429  12.045
10613WAT      O45789   0.796   3.591  10.489
10613WAT     H145790   0.758   3.570  10.574
10613WAT     H245791   0.743   3.544  10.425
10614WAT      O45792   1.194   0.195  10.087
10614WAT     H145793   1.260   0.264  10.075
10614WAT     H245794   1.127   0.214  10.022
10615WAT      O45795   0.596   0.433   0.394
10615WAT     H145796   0.623   0.347   0.426
10615WAT     H245797   0.663   0.493   0.427
10616WAT      O45798   3.464   5.068   3.208
10616WAT     H145799   3.410   5.063   3.287
10616WAT     H245800   3.552   5.041   3.238
10617WAT      O45801   5.030   6.131   3.691
10617WAT     H145802   4.960   6.195   3.677
10617WAT     H245803   5.107   6.185   3.712
10618WAT      O45804   4.045   5.010  11.728
10618WAT     H145805   4.086   4.979  11.647
10618WAT     H245806   3.969   5.060  11.700
10619WAT      O45807   0.280   2.765  12.054
10619WAT     H145808   0.231   2.830  12.104
10619WAT     H245809   0.231   2.756  11.972
10620WAT      O45810   5.571   1.485   2.706
10620WAT     H145811   5.645   1.459   2.761
10620WAT     H245812   5.526   1.553   2.756
10621WAT      O45813   2.875   3.727  12.368
10621WAT     H145814   2.971   3.736  12.370
10621WAT     H245815   2.853   3.730  12.275
10622WAT      O45816   0.827   0.173   8.599
10622WAT     H145817   0.884   0.229   8.546
10622WAT     H245818   0.745   0.169   8.550
10623WAT      O45819   3.180   4.092   0.646
10623WAT     H145820   3.088   4.111   0.633
10623WAT     H245821   3.190   4.083   0.741
10624WAT      O45822   5.659   5.517   1.991
10624WAT     H145823   5.586   5.457   2.008
10624WAT     H245824   5.645   5.546   1.901
10625WAT      O45825   0.394   1.189  11.946
10625WAT     H145826   0.347   1.262  11.906
10625WAT     H245827   0.331   1.150  12.006
10626WAT      O45828   2.078   4.076   0.630
10626WAT     H145829   2.135   4.076   0.553
10626WAT     H245830   2.133   4.104   0.702
10627WAT      O45831   1.689   2.071   0.067
10627WAT     H145832   1.775   2.054   0.106
10627WAT     H245833   1.636   1.996   0.092
10628WAT      O45834   6.096   3.530  11.716
10628WAT     H145835   6.134   3.443  11.726
10628WAT     H245836   6.171   3.588  11.706
10629WAT      O45837   5.961   6.132   9.582
10629WAT     H145838   5.888   6.150   9.522
10629WAT     H245839   6.009   6.060   9.541
10630WAT      O45840   3.106   5.606   1.282
10630WAT     H145841   3.069   5.694   1.277
10630WAT     H245842   3.036   5.552   1.319
10631WAT      O45843   1.713   6.011   2.104
10631WAT     H145844   1.657   6.031   2.179
10631WAT     H245845   1.779   6.080   2.104
10632WAT      O45846   1.876   3.056   3.707
10632WAT     H145847   1.880   2.961   3.696
10632WAT     H245848   1.788   3.073   3.740
10633WAT      O45849   3.527   1.836   3.059
10633WAT     H145850   3.594   1.804   2.998
10633WAT     H245851   3.495   1.916   3.018
10634WAT      O45852   4.186   5.093   1.275
10634WAT     H145853   4.187   5.024   1.340
10634WAT     H245854   4.164   5.172   1.324
10635WAT      O45855   0.703   4.975   3.691
10635WAT     H145856   0.615   4.999   3.664
10635WAT     H245857   0.756   5.053   3.674
10636WAT      O45858   3.487   4.406  12.030
10636WAT     H145859   3.463   4.451  12.111
10636WAT     H245860   3.405   4.395  11.984
10637WAT      O45861   5.341   4.219   8.972
10637WAT     H145862   5.297   4.291   9.018
10637WAT     H245863   5.270   4.158   8.951
10638WAT      O45864   0.040   6.041   2.022
10638WAT     H145865   0.074   6.114   2.074
10638WAT     H245866   0.100   5.969   2.041
10639WAT      O45867   0.492   4.465   2.821
10639WAT     H145868   0.446   4.422   2.749
10639WAT     H245869   0.567   4.408   2.838
10640WAT      O45870   3.691   4.121  11.375
10640WAT     H145871   3.766   4.062  11.367
10640WAT     H245872   3.653   4.100  11.460
10641WAT      O45873   3.189   4.175  10.400
10641WAT     H145874   3.210   4.195  10.491
10641WAT     H245875   3.250   4.104  10.377
10642WAT      O45876   3.579   4.019  11.644
10642WAT     H145877   3.566   3.925  11.633
10642WAT     H245878   3.525   4.042  11.720
10643WAT      O45879   4.641   3.835   2.489
10643WAT     H145880   4.576   3.811   2.423
10643WAT     H245881   4.679   3.752   2.517
10644WAT      O45882   0.018   5.004   9.495
10644WAT     H145883   0.050   4.952   9.569
10644WAT     H245884  -0.067   4.966   9.474
10645WAT      O45885   3.245   3.461   0.010
10645WAT     H145886   3.230   3.512  -0.070
10645WAT     H245887   3.247   3.526   0.080
10646WAT      O45888   2.944   0.628   0.176
10646WAT     H145889   2.869   0.594   0.128
10646WAT     H245890   2.999   0.668   0.109
10647WAT      O45891   3.985   0.728   9.764
10647WAT     H145892   4.054   0.677   9.723
10647WAT     H245893   4.023   0.760   9.845
10648WAT      O45894   5.925   4.866   4.522
10648WAT     H145895   5.870   4.806   4.573
10648WAT     H245896   6.012   4.825   4.523
10649WAT      O45897   3.935   2.765  11.498
10649WAT     H145898   3.851   2.743  11.537
10649WAT     H245899   3.941   2.708  11.421
10650WAT      O45900   3.840   0.666   0.821
10650WAT     H145901   3.757   0.703   0.789
10650WAT     H245902   3.828   0.657   0.915
10651WAT      O45903   2.514   3.446   8.415
10651WAT     H145904   2.563   3.443   8.332
10651WAT     H245905   2.425   3.420   8.391
10652WAT      O45906   4.453   4.854   1.525
10652WAT     H145907   4.396   4.777   1.519
10652WAT     H245908   4.538   4.823   1.496
10653WAT      O45909   0.579   3.062   0.917
10653WAT     H145910   0.629   2.992   0.959
10653WAT     H245911   0.623   3.076   0.833
10654WAT      O45912   0.590   0.132   3.483
10654WAT     H145913   0.588   0.061   3.419
10654WAT     H245914   0.636   0.203   3.439
10655WAT      O45915   5.120   2.062   3.038
10655WAT     H145916   5.080   2.138   3.081
10655WAT     H245917   5.097   2.072   2.945
10656WAT      O45918   4.978   4.869  11.329
10656WAT     H145919   4.940   4.816  11.259
10656WAT     H245920   4.910   4.871  11.397
10657WAT      O45921   2.566   3.423   1.675
10657WAT     H145922   2.482   3.410   1.718
10657WAT     H245923   2.607   3.495   1.724
10658WAT      O45924   1.816   2.374   1.366
10658WAT     H145925   1.889   2.382   1.306
10658WAT     H245926   1.760   2.306   1.329
10659WAT      O45927   1.481   4.394  11.614
10659WAT     H145928   1.416   4.435  11.671
10659WAT     H245929   1.523   4.467  11.569
10660WAT      O45930   0.815   4.760  12.329
10660WAT     H145931   0.864   4.733  12.407
10660WAT     H245932   0.791   4.851  12.347
10661WAT      O45933   5.381   3.173   0.796
10661WAT     H145934   5.425   3.094   0.766
10661WAT     H245935   5.394   3.236   0.725
10662WAT      O45936   4.415   1.594   2.404
10662WAT     H145937   4.338   1.539   2.418
10662WAT     H245938   4.437   1.629   2.490
10663WAT      O45939   1.708   4.564   0.137
10663WAT     H145940   1.729   4.480   0.096
10663WAT     H245941   1.620   4.585   0.105
10664WAT      O45942   3.803   1.781   2.116
10664WAT     H145943   3.845   1.825   2.189
10664WAT     H245944   3.746   1.847   2.078
10665WAT      O45945   3.750   4.892   1.838
10665WAT     H145946   3.781   4.802   1.826
10665WAT     H245947   3.830   4.943   1.852
10666WAT      O45948   1.491   6.032   1.916
10666WAT     H145949   1.569   6.019   1.971
10666WAT     H245950   1.507   6.115   1.872
10667WAT      O45951   4.519   4.491   3.631
10667WAT     H145952   4.528   4.398   3.610
10667WAT     H245953   4.601   4.530   3.602
10668WAT      O45954   2.440   3.187   8.216
10668WAT     H145955   2.366   3.229   8.260
10668WAT     H245956   2.504   3.258   8.202
10669WAT      O45957   3.792   3.571   3.654
10669WAT     H145958   3.708   3.532   3.629
10669WAT     H245959   3.780   3.665   3.642
10670WAT      O45960   6.191   4.093   1.149
10670WAT     H145961   6.154   4.032   1.212
10670WAT     H245962   6.286   4.084   1.158
10671WAT      O45963   4.810   2.441   9.722
10671WAT     H145964   4.763   2.490   9.655
10671WAT     H245965   4.892   2.415   9.680
10672WAT      O45966   2.073   1.319   8.324
10672WAT     H145967   2.075   1.362   8.239
10672WAT     H245968   2.053   1.227   8.304
10673WAT      O45969   6.171   4.737  11.542
10673WAT     H145970   6.121   4.807  11.501
10673WAT     H245971   6.194   4.679  11.469
10674WAT      O45972   6.130   0.554   0.841
10674WAT     H145973   6.042   0.585   0.864
10674WAT     H245974   6.135   0.567   0.746
10675WAT      O45975   3.335   5.204   0.648
10675WAT     H145976   3.405   5.144   0.673
10675WAT     H245977   3.373   5.291   0.657
10676WAT      O45978   6.099   3.192  12.604
10676WAT     H145979   6.098   3.188  12.699
10676WAT     H245980   6.189   3.216  12.582
10677WAT      O45981   3.379   0.053  10.738
10677WAT     H145982   3.396   0.146  10.723
10677WAT     H245983   3.409   0.009  10.658
10678WAT      O45984   6.154   2.883  11.361
10678WAT     H145985   6.138   2.959  11.417
10678WAT     H245986   6.069   2.863  11.322
10679WAT      O45987   3.885   6.072  10.059
10679WAT     H145988   3.901   6.076   9.964
10679WAT     H245989   3.972   6.057  10.097
10680WAT      O45990   4.376   3.006   1.978
10680WAT     H145991   4.345   2.924   2.017
10680WAT     H245992   4.449   3.033   2.035
10681WAT      O45993   3.797   3.700  11.782
10681WAT     H145994   3.829   3.748  11.859
10681WAT     H245995   3.856   3.727  11.711
10682WAT      O45996   2.158   6.082   4.389
10682WAT     H145997   2.251   6.060   4.395
10682WAT     H245998   2.120   6.050   4.471
10683WAT      O45999   1.773   0.538   2.199
10683WAT     H146000   1.790   0.581   2.115
10683WAT     H246001   1.839   0.469   2.205
10684WAT      O46002   1.864   6.134   2.345
10684WAT     H146003   1.818   6.215   2.369
10684WAT     H246004   1.798   6.065   2.353
10685WAT      O46005   0.653   1.456  11.844
10685WAT     H146006   0.741   1.477  11.812
10685WAT     H246007   0.597   1.461  11.766
10686WAT      O46008   0.781   1.949   1.012
10686WAT     H146009   0.762   1.855   1.010
10686WAT     H246010   0.817   1.968   0.926
10687WAT      O46011   3.652   2.389   0.034
10687WAT     H146012   3.571   2.433   0.009
10687WAT     H246013   3.638   2.363   0.125
10688WAT      O46014   1.242   4.354   3.002
10688WAT     H146015   1.170   4.388   3.055
10688WAT     H246016   1.299   4.309   3.065
10689WAT      O46017   3.663   0.907   2.064
10689WAT     H146018   3.631   0.883   2.151
10689WAT     H246019   3.593   0.881   2.004
10690WAT      O46020   5.304   5.114   3.040
10690WAT     H146021   5.291   5.130   2.947
10690WAT     H246022   5.257   5.033   3.058
10691WAT      O46023   2.879   1.619   1.574
10691WAT     H146024   2.814   1.571   1.521
10691WAT     H246025   2.961   1.610   1.526
10692WAT      O46026   4.586   3.340  12.401
10692WAT     H146027   4.547   3.371  12.482
10692WAT     H246028   4.663   3.396  12.389
10693WAT      O46029   1.741   1.835  12.037
10693WAT     H146030   1.788   1.843  11.954
10693WAT     H246031   1.672   1.771  12.020
10694WAT      O46032   2.332   2.476  12.646
10694WAT     H146033   2.269   2.469  12.574
10694WAT     H246034   2.302   2.549  12.699
10695WAT      O46035   5.603   3.622  10.215
10695WAT     H146036   5.569   3.562  10.282
10695WAT     H246037   5.533   3.626  10.150
10696WAT      O46038   3.469   3.510  12.116
10696WAT     H146039   3.532   3.562  12.066
10696WAT     H246040   3.443   3.566  12.189
10697WAT      O46041   5.496   0.587   1.921
10697WAT     H146042   5.478   0.663   1.867
10697WAT     H246043   5.474   0.512   1.866
10698WAT      O46044   3.724   5.005   3.344
10698WAT     H146045   3.814   4.996   3.312
10698WAT     H246046   3.710   4.928   3.399
10699WAT      O46047   5.787   2.410   1.179
10699WAT     H146048   5.883   2.410   1.176
10699WAT     H246049   5.762   2.341   1.118
10700WAT      O46050   3.330   5.348  10.362
10700WAT     H146051   3.282   5.421  10.323
10700WAT     H246052   3.262   5.283  10.382
10701WAT      O46053   3.457   1.603   3.227
10701WAT     H146054   3.414   1.648   3.299
10701WAT     H246055   3.488   1.673   3.169
10702WAT      O46056   2.771   3.054   2.954
10702WAT     H146057   2.686   3.026   2.986
10702WAT     H246058   2.753   3.128   2.896
10703WAT      O46059   4.312   2.014   0.107
10703WAT     H146060   4.281   2.065   0.033
10703WAT     H246061   4.388   1.967   0.074
10704WAT      O46062   5.067   2.250  11.120
10704WAT     H146063   5.150   2.268  11.074
10704WAT     H246064   5.088   2.264  11.212
10705WAT      O46065   4.473   1.295  12.038
10705WAT     H146066   4.512   1.376  12.072
10705WAT     H246067   4.520   1.225  12.084
10706WAT      O46068   5.292   5.037   2.504
10706WAT     H146069   5.322   4.948   2.521
10706WAT     H246070   5.202   5.026   2.473
10707WAT      O46071   2.705   5.309  11.519
10707WAT     H146072   2.711   5.394  11.475
10707WAT     H246073   2.791   5.269  11.508
10708WAT      O46074   3.146   4.040   2.006
10708WAT     H146075   3.113   3.991   2.081
10708WAT     H246076   3.191   3.975   1.952
10709WAT      O46077   2.966   3.472  10.040
10709WAT     H146078   2.985   3.427   9.958
10709WAT     H246079   2.909   3.545  10.015
10710WAT      O46080   5.177   3.231  12.086
10710WAT     H146081   5.269   3.205  12.075
10710WAT     H246082   5.128   3.161  12.042
10711WAT      O46083   5.712   4.744   0.656
10711WAT     H146084   5.714   4.738   0.751
10711WAT     H246085   5.694   4.655   0.627
10712WAT      O46086   4.565   2.277   1.078
10712WAT     H146087   4.579   2.371   1.065
10712WAT     H246088   4.620   2.236   1.011
10713WAT      O46089   2.747   3.877   1.721
10713WAT     H146090   2.817   3.812   1.730
10713WAT     H246091   2.782   3.941   1.660
10714WAT      O46092   1.410   1.563  10.517
10714WAT     H146093   1.405   1.534  10.608
10714WAT     H246094   1.490   1.614  10.512
10715WAT      O46095   6.067   3.219   8.183
10715WAT     H146096   6.035   3.135   8.217
10715WAT     H246097   5.990   3.276   8.185
10716WAT      O46098   0.950   4.397  10.159
10716WAT     H146099   0.934   4.400  10.254
10716WAT     H246100   1.039   4.361  10.152
10717WAT      O46101   4.597   1.823   8.769
10717WAT     H146102   4.567   1.785   8.852
10717WAT     H246103   4.519   1.867   8.734
10718WAT      O46104   5.226   6.144   4.830
10718WAT     H146105   5.179   6.063   4.809
10718WAT     H246106   5.312   6.133   4.787
10719WAT      O46107   1.990   0.898   3.143
10719WAT     H146108   1.904   0.862   3.120
10719WAT     H246109   2.052   0.840   3.099
10720WAT      O46110   2.801   3.065  11.190
10720WAT     H146111   2.825   3.099  11.103
10720WAT     H246112   2.745   2.990  11.171
10721WAT      O46113   5.595   3.344   4.128
10721WAT     H146114   5.613   3.385   4.213
10721WAT     H246115   5.576   3.252   4.150
10722WAT      O46116   3.116   2.967  10.234
10722WAT     H146117   3.168   2.887  10.229
10722WAT     H246118   3.075   2.963  10.321
10723WAT      O46119   3.098   3.485  11.704
10723WAT     H146120   3.130   3.539  11.776
10723WAT     H246121   3.003   3.482  11.716
10724WAT      O46122   3.844   2.556  10.098
10724WAT     H146123   3.855   2.500  10.176
10724WAT     H246124   3.915   2.529  10.040
10725WAT      O46125   1.064   3.716   4.583
10725WAT     H146126   1.050   3.762   4.666
10725WAT     H246127   1.151   3.743   4.555
10726WAT      O46128   1.772   0.817  11.798
10726WAT     H146129   1.795   0.767  11.720
10726WAT     H246130   1.700   0.769  11.838
10727WAT      O46131   3.379   3.042   8.219
10727WAT     H146132   3.460   3.046   8.270
10727WAT     H246133   3.355   2.949   8.220
10728WAT      O46134   0.808   1.121   4.696
10728WAT     H146135   0.767   1.035   4.698
10728WAT     H246136   0.734   1.182   4.691
10729WAT      O46137   6.072   5.028  11.147
10729WAT     H146138   6.142   4.974  11.184
10729WAT     H246139   6.019   5.053  11.223
10730WAT      O46140   4.007   0.374   1.961
10730WAT     H146141   3.975   0.463   1.977
10730WAT     H246142   4.056   0.351   2.040
10731WAT      O46143   1.518   6.110  12.289
10731WAT     H146144   1.519   6.018  12.261
10731WAT     H246145   1.430   6.140  12.266
10732WAT      O46146   5.263   4.373   9.209
10732WAT     H146147   5.353   4.401   9.190
10732WAT     H246148   5.214   4.454   9.220
10733WAT      O46149   5.973   1.600   0.558
10733WAT     H146150   5.953   1.508   0.570
10733WAT     H246151   6.005   1.607   0.468
10734WAT      O46152   0.157   0.664   0.720
10734WAT     H146153   0.076   0.617   0.742
10734WAT     H246154   0.223   0.595   0.711
10735WAT      O46155   3.656   1.525  10.370
10735WAT     H146156   3.705   1.446  10.349
10735WAT     H246157   3.564   1.499  10.361
10736WAT      O46158   5.501   4.215   1.201
10736WAT     H146159   5.552   4.246   1.126
10736WAT     H246160   5.500   4.289   1.261
10737WAT      O46161   1.058   3.501   0.977
10737WAT     H146162   1.147   3.485   1.007
10737WAT     H246163   1.006   3.507   1.057
10738WAT      O46164   6.092   4.032  12.513
10738WAT     H146165   6.065   3.941  12.502
10738WAT     H246166   6.160   4.028  12.581
10739WAT      O46167   2.990   3.488   1.798
10739WAT     H146168   3.043   3.468   1.874
10739WAT     H246169   3.011   3.419   1.735
10740WAT      O46170   2.304   0.414   9.233
10740WAT     H146171   2.319   0.321   9.246
10740WAT     H246172   2.386   0.456   9.256
10741WAT      O46173   2.178   2.373   2.404
10741WAT     H146174   2.183   2.395   2.497
10741WAT     H246175   2.094   2.329   2.394
10742WAT      O46176   4.990   5.638   0.548
10742WAT     H146177   5.013   5.655   0.457
10742WAT     H246178   4.910   5.586   0.544
10743WAT      O46179   0.690   0.606   1.688
10743WAT     H146180   0.699   0.664   1.764
10743WAT     H246181   0.697   0.664   1.612
10744WAT      O46182   2.692   4.399   8.955
10744WAT     H146183   2.722   4.466   9.017
10744WAT     H246184   2.723   4.317   8.992
10745WAT      O46185   3.542   2.682   2.270
10745WAT     H146186   3.505   2.681   2.358
10745WAT     H246187   3.562   2.775   2.253
10746WAT      O46188   1.893   3.301   2.797
10746WAT     H146189   1.940   3.240   2.853
10746WAT     H246190   1.898   3.385   2.842
10747WAT      O46191   6.188   4.924   0.795
10747WAT     H146192   6.132   4.916   0.872
10747WAT     H246193   6.141   4.877   0.726
10748WAT      O46194   1.260   5.186   1.271
10748WAT     H146195   1.202   5.111   1.285
10748WAT     H246196   1.200   5.259   1.253
10749WAT      O46197   4.221   3.461   0.048
10749WAT     H146198   4.131   3.457   0.080
10749WAT     H246199   4.217   3.519  -0.028
10750WAT      O46200   5.970   5.542   4.734
10750WAT     H146201   5.965   5.630   4.769
10750WAT     H246202   5.933   5.549   4.646
10751WAT      O46203   5.430   3.158  12.574
10751WAT     H146204   5.337   3.145  12.589
10751WAT     H246205   5.444   3.128  12.484
10752WAT      O46206   3.745   4.574   1.848
10752WAT     H146207   3.814   4.514   1.876
10752WAT     H246208   3.767   4.596   1.758
10753WAT      O46209   0.490   4.754  12.372
10753WAT     H146210   0.408   4.722  12.333
10753WAT     H246211   0.525   4.815  12.306
10754WAT      O46212   3.251   4.505   4.874
10754WAT     H146213   3.335   4.473   4.841
10754WAT     H246214   3.246   4.595   4.844
10755WAT      O46215   4.063   5.127  11.406
10755WAT     H146216   4.012   5.109  11.485
10755WAT     H246217   4.042   5.218  11.383
10756WAT      O46218   4.477   0.643  11.981
10756WAT     H146219   4.563   0.633  11.941
10756WAT     H246220   4.450   0.553  12.002
10757WAT      O46221   1.817   1.475   3.751
10757WAT     H146222   1.734   1.493   3.796
10757WAT     H246223   1.821   1.380   3.746
10758WAT      O46224   5.232   5.278  10.441
10758WAT     H146225   5.199   5.359  10.403
10758WAT     H246226   5.284   5.238  10.371
10759WAT      O46227   3.969   4.849   8.985
10759WAT     H146228   4.029   4.912   9.026
10759WAT     H246229   3.891   4.852   9.040
10760WAT      O46230   5.058   2.677  10.472
10760WAT     H146231   5.136   2.633  10.507
10760WAT     H246232   5.078   2.692  10.380
10761WAT      O46233   5.899   5.369   2.253
10761WAT     H146234   5.825   5.348   2.195
10761WAT     H246235   5.866   5.439   2.309
10762WAT      O46236   0.203   2.633   9.914
10762WAT     H146237   0.146   2.583   9.856
10762WAT     H246238   0.291   2.619   9.880
10763WAT      O46239   3.771   4.486  11.421
10763WAT     H146240   3.802   4.402  11.387
10763WAT     H246241   3.780   4.479  11.516
10764WAT      O46242   1.971   2.072   1.245
10764WAT     H146243   2.018   2.117   1.315
10764WAT     H246244   2.012   2.103   1.164
10765WAT      O46245   4.307   1.338   9.669
10765WAT     H146246   4.371   1.352   9.738
10765WAT     H246247   4.249   1.270   9.703
10766WAT      O46248   3.094   1.262   4.423
10766WAT     H146249   3.128   1.339   4.377
10766WAT     H246250   3.150   1.190   4.394
10767WAT      O46251   4.935   3.660   0.542
10767WAT     H146252   4.886   3.585   0.508
10767WAT     H246253   5.025   3.645   0.510
10768WAT      O46254   4.562   4.430   2.869
10768WAT     H146255   4.622   4.361   2.842
10768WAT     H246256   4.475   4.391   2.858
10769WAT      O46257   3.697   4.739   1.466
10769WAT     H146258   3.606   4.743   1.495
10769WAT     H246259   3.703   4.804   1.396
10770WAT      O46260   2.092   4.596  10.653
10770WAT     H146261   2.143   4.515  10.646
10770WAT     H246262   2.001   4.566  10.649
10771WAT      O46263   3.687   3.531   3.331
10771WAT     H146264   3.651   3.619   3.343
10771WAT     H246265   3.778   3.537   3.359
10772WAT      O46266   2.182   2.959   4.044
10772WAT     H146267   2.187   3.037   4.099
10772WAT     H246268   2.104   2.975   3.989
10773WAT      O46269   5.670   2.172   1.351
10773WAT     H146270   5.641   2.208   1.434
10773WAT     H246271   5.671   2.247   1.291
10774WAT      O46272   6.039   0.041   0.233
10774WAT     H146273   5.994  -0.043   0.238
10774WAT     H246274   6.131   0.020   0.250
10775WAT      O46275   4.350   5.030  11.360
10775WAT     H146276   4.433   5.074  11.378
10775WAT     H246277   4.285   5.078  11.412
10776WAT      O46278   4.584   2.426   9.160
10776WAT     H146279   4.526   2.494   9.195
10776WAT     H246280   4.659   2.475   9.124
10777WAT      O46281   1.992   1.536  11.079
10777WAT     H146282   2.053   1.471  11.114
10777WAT     H246283   2.046   1.613  11.062
10778WAT      O46284   4.935   3.563   3.468
10778WAT     H146285   4.907   3.654   3.455
10778WAT     H246286   4.898   3.539   3.553
10779WAT      O46287   3.361   4.316   9.930
10779WAT     H146288   3.395   4.229   9.953
10779WAT     H246289   3.408   4.340   9.850
10780WAT      O46290   5.895   2.724   7.713
10780WAT     H146291   5.892   2.649   7.653
10780WAT     H246292   5.988   2.742   7.724
10781WAT      O46293   1.665   1.700   0.956
10781WAT     H146294   1.591   1.689   1.015
10781WAT     H246295   1.729   1.750   1.007
10782WAT      O46296   3.595   5.922   1.669
10782WAT     H146297   3.584   5.909   1.763
10782WAT     H246298   3.573   5.838   1.630
10783WAT      O46299   3.979   4.944   3.300
10783WAT     H146300   4.021   4.981   3.378
10783WAT     H246301   3.983   4.849   3.315
10784WAT      O46302   3.720   2.822   2.834
10784WAT     H146303   3.635   2.852   2.866
10784WAT     H246304   3.749   2.758   2.899
10785WAT      O46305   0.231   1.973   2.868
10785WAT     H146306   0.215   1.917   2.944
10785WAT     H246307   0.256   2.058   2.905
10786WAT      O46308   0.083   0.773   9.166
10786WAT     H146309   0.085   0.864   9.136
10786WAT     H246310   0.078   0.721   9.085
10787WAT      O46311   3.264   2.309   9.702
10787WAT     H146312   3.336   2.265   9.747
10787WAT     H246313   3.196   2.319   9.769
10788WAT      O46314   1.403   0.491  11.999
10788WAT     H146315   1.338   0.420  11.997
10788WAT     H246316   1.353   0.568  12.026
10789WAT      O46317   5.838   1.821  12.078
10789WAT     H146318   5.798   1.734  12.078
10789WAT     H246319   5.774   1.876  12.033
10790WAT      O46320   2.421   0.057   0.337
10790WAT     H146321   2.372  -0.015   0.298
10790WAT     H246322   2.499   0.065   0.281
10791WAT      O46323   0.138   0.211   3.145
10791WAT     H146324   0.124   0.162   3.226
10791WAT     H246325   0.230   0.198   3.124
10792WAT      O46326   3.981   4.001   7.595
10792WAT     H146327   3.919   4.069   7.623
10792WAT     H246328   4.026   4.038   7.519
10793WAT      O46329   3.077   5.686   9.556
10793WAT     H146330   3.005   5.663   9.615
10793WAT     H246331   3.036   5.738   9.487
10794WAT      O46332   0.882   0.734   1.865
10794WAT     H146333   0.930   0.811   1.895
10794WAT     H246334   0.936   0.699   1.793
10795WAT      O46335   0.334   1.493   3.715
10795WAT     H146336   0.249   1.531   3.739
10795WAT     H246337   0.331   1.405   3.751
10796WAT      O46338   4.901   0.051  12.111
10796WAT     H146339   4.912  -0.038  12.075
10796WAT     H246340   4.810   0.073  12.091
10797WAT      O46341   6.195   3.542   0.633
10797WAT     H146342   6.226   3.545   0.723
10797WAT     H246343   6.100   3.529   0.641
10798WAT      O46344   2.529   1.754   9.060
10798WAT     H146345   2.523   1.671   9.108
10798WAT     H246346   2.438   1.781   9.048
10799WAT      O46347   3.971   2.451   1.365
10799WAT     H146348   3.967   2.439   1.460
10799WAT     H246349   3.920   2.378   1.330
10800WAT      O46350   0.058   1.194  12.086
10800WAT     H146351   0.118   1.122  12.107
10800WAT     H246352   0.105   1.273  12.113
10801WAT      O46353   5.964   4.625  11.247
10801WAT     H146354   6.045   4.580  11.272
10801WAT     H246355   5.928   4.656  11.330
10802WAT      O46356   2.361   0.683  12.078
10802WAT     H146357   2.356   0.771  12.116
10802WAT     H246358   2.305   0.630  12.135
10803WAT      O46359   4.201   3.268  11.267
10803WAT     H146360   4.212   3.180  11.304
10803WAT     H246361   4.240   3.262  11.180
10804WAT      O46362   3.250   5.980   8.994
10804WAT     H146363   3.326   5.927   8.970
10804WAT     H246364   3.246   5.973   9.090
10805WAT      O46365   1.658   4.658  10.406
10805WAT     H146366   1.709   4.716  10.350
10805WAT     H246367   1.684   4.570  10.379
10806WAT      O46368   4.270   2.655   3.463
10806WAT     H146369   4.303   2.700   3.541
10806WAT     H246370   4.176   2.674   3.463
10807WAT      O46371   0.276   4.264   1.986
10807WAT     H146372   0.203   4.318   1.958
10807WAT     H246373   0.262   4.250   2.079
10808WAT      O46374   5.127   3.498  12.013
10808WAT     H146375   5.207   3.501  11.961
10808WAT     H246376   5.129   3.411  12.055
10809WAT      O46377   4.984   1.608  10.843
10809WAT     H146378   4.963   1.515  10.833
10809WAT     H246379   4.902   1.649  10.870
10810WAT      O46380   2.376   2.960   8.086
10810WAT     H146381   2.421   3.036   8.124
10810WAT     H246382   2.341   2.992   8.003
10811WAT      O46383   5.808   5.261   1.962
10811WAT     H146384   5.891   5.249   1.917
10811WAT     H246385   5.784   5.351   1.944
10812WAT      O46386   0.683   0.931   9.190
10812WAT     H146387   0.758   0.970   9.145
10812WAT     H246388   0.717   0.848   9.225
10813WAT      O46389   4.347   4.842   9.699
10813WAT     H146390   4.382   4.754   9.686
10813WAT     H246391   4.416   4.901   9.668
10814WAT      O46392   5.722   0.569   2.783
10814WAT     H146393   5.695   0.530   2.866
10814WAT     H246394   5.739   0.494   2.726
10815WAT      O46395   0.857   1.022   1.524
10815WAT     H146396   0.940   0.974   1.524
10815WAT     H246397   0.793   0.960   1.560
10816WAT      O46398   2.595   2.061  10.285
10816WAT     H146399   2.501   2.069  10.268
10816WAT     H246400   2.600   2.039  10.378
10817WAT      O46401   2.829   4.332   2.925
10817WAT     H146402   2.787   4.246   2.923
10817WAT     H246403   2.818   4.366   2.837
10818WAT      O46404   2.462   0.783  11.713
10818WAT     H146405   2.423   0.842  11.776
10818WAT     H246406   2.555   0.779  11.737
10819WAT      O46407   3.680   3.431  11.794
10819WAT     H146408   3.726   3.512  11.816
10819WAT     H246409   3.592   3.459  11.770
10820WAT      O46410   4.841   6.171   0.796
10820WAT     H146411   4.762   6.223   0.779
10820WAT     H246412   4.863   6.133   0.711
10821WAT      O46413   3.074   2.006   2.707
10821WAT     H146414   3.051   1.925   2.663
10821WAT     H246415   3.165   1.995   2.734
10822WAT      O46416   2.369   3.074  10.805
10822WAT     H146417   2.408   3.079  10.893
10822WAT     H246418   2.285   3.031  10.820
10823WAT      O46419   5.733   1.341   0.975
10823WAT     H146420   5.740   1.376   1.064
10823WAT     H246421   5.723   1.418   0.920
10824WAT      O46422   2.469   1.382   1.561
10824WAT     H146423   2.420   1.322   1.618
10824WAT     H246424   2.455   1.349   1.473
10825WAT      O46425   5.667   3.974   8.566
10825WAT     H146426   5.574   3.952   8.574
10825WAT     H246427   5.675   4.010   8.477
10826WAT      O46428   3.528   1.100   7.922
10826WAT     H146429   3.532   1.137   7.833
10826WAT     H246430   3.511   1.007   7.908
10827WAT      O46431   0.207   1.390  12.195
10827WAT     H146432   0.294   1.380  12.235
10827WAT     H246433   0.147   1.399  12.269
10828WAT      O46434   4.460   4.634   9.575
10828WAT     H146435   4.441   4.642   9.481
10828WAT     H246436   4.476   4.541   9.588
10829WAT      O46437   0.816   6.098   0.677
10829WAT     H146438   0.842   6.181   0.638
10829WAT     H246439   0.722   6.092   0.659
10830WAT      O46440   0.647   4.764   0.684
10830WAT     H146441   0.626   4.848   0.643
10830WAT     H246442   0.617   4.698   0.623
10831WAT      O46443   3.494   5.095   9.650
10831WAT     H146444   3.583   5.089   9.616
10831WAT     H246445   3.487   5.183   9.686
10832WAT      O46446   3.762   3.711   8.538
10832WAT     H146447   3.755   3.717   8.443
10832WAT     H246448   3.848   3.749   8.558
10833WAT      O46449   6.193   2.331   7.254
10833WAT     H146450   6.136   2.325   7.176
10833WAT     H246451   6.151   2.398   7.308
10834WAT      O46452   2.076   2.390  11.213
10834WAT     H146453   2.075   2.350  11.300
10834WAT     H246454   2.110   2.322  11.155
10835WAT      O46455   4.620   2.605   8.601
10835WAT     H146456   4.525   2.616   8.602
10835WAT     H246457   4.635   2.525   8.551
10836WAT      O46458   4.617   3.055   9.551
10836WAT     H146459   4.681   3.111   9.595
10836WAT     H246460   4.613   3.089   9.462
10837WAT      O46461   5.713   0.844   9.671
10837WAT     H146462   5.625   0.810   9.683
10837WAT     H246463   5.737   0.883   9.755
10838WAT      O46464   4.676   5.353  10.718
10838WAT     H146465   4.755   5.301  10.725
10838WAT     H246466   4.608   5.300  10.760
10839WAT      O46467   2.035   4.992   0.927
10839WAT     H146468   2.065   5.075   0.964
10839WAT     H246469   2.098   4.928   0.960
10840WAT      O46470   2.732   1.357   9.317
10840WAT     H146471   2.776   1.346   9.401
10840WAT     H246472   2.676   1.280   9.308
10841WAT      O46473   1.615   3.172   0.089
10841WAT     H146474   1.661   3.252   0.114
10841WAT     H246475   1.638   3.159  -0.003
10842WAT      O46476   5.563   3.196   3.791
10842WAT     H146477   5.593   3.277   3.748
10842WAT     H246478   5.527   3.143   3.720
10843WAT      O46479   2.364   4.857   9.443
10843WAT     H146480   2.373   4.837   9.536
10843WAT     H246481   2.352   4.772   9.401
10844WAT      O46482   0.242   3.214   9.718
10844WAT     H146483   0.267   3.290   9.771
10844WAT     H246484   0.287   3.140   9.758
10845WAT      O46485   0.439   0.064  10.785
10845WAT     H146486   0.466   0.073  10.694
10845WAT     H246487   0.400   0.148  10.807
10846WAT      O46488   4.003   3.159   0.412
10846WAT     H146489   3.952   3.240   0.408
10846WAT     H246490   3.956   3.104   0.476
10847WAT      O46491   0.005   6.051   9.481
10847WAT     H146492   0.045   5.970   9.514
10847WAT     H246493   0.067   6.120   9.505
10848WAT      O46494   6.002   5.539  11.766
10848WAT     H146495   5.921   5.533  11.714
10848WAT     H246496   6.052   5.461  11.741
10849WAT      O46497   2.345   3.598   3.075
10849WAT     H146498   2.439   3.578   3.070
10849WAT     H246499   2.333   3.630   3.165
10850WAT      O46500   0.692   3.486   1.509
10850WAT     H146501   0.654   3.426   1.444
10850WAT     H246502   0.723   3.429   1.579
10851WAT      O46503   5.175   1.960   3.300
10851WAT     H146504   5.206   2.048   3.319
10851WAT     H246505   5.133   1.966   3.215
10852WAT      O46506   2.876   4.949  11.011
10852WAT     H146507   2.802   4.903  11.051
10852WAT     H246508   2.836   5.025  10.969
10853WAT      O46509   3.610   5.810  10.799
10853WAT     H146510   3.572   5.789  10.884
10853WAT     H246511   3.591   5.733  10.745
10854WAT      O46512   1.798   3.004   8.906
10854WAT     H146513   1.831   3.031   8.820
10854WAT     H246514   1.789   3.087   8.955
10855WAT      O46515   0.646   1.743   2.418
10855WAT     H146516   0.610   1.812   2.474
10855WAT     H246517   0.696   1.789   2.351
10856WAT      O46518   3.186   2.921   9.577
10856WAT     H146519   3.094   2.913   9.553
10856WAT     H246520   3.212   2.831   9.601
10857WAT      O46521   4.471   4.290   1.368
10857WAT     H146522   4.486   4.313   1.276
10857WAT     H246523   4.502   4.366   1.417
10858WAT      O46524   5.896   2.431   4.333
10858WAT     H146525   5.823   2.471   4.380
10858WAT     H246526   5.857   2.357   4.286
10859WAT      O46527   4.816   4.443  12.279
10859WAT     H146528   4.903   4.478  12.262
10859WAT     H246529   4.831   4.359  12.323
10860WAT      O46530   4.193   4.053  11.605
10860WAT     H146531   4.200   4.025  11.697
10860WAT     H246532   4.239   3.984  11.557
10861WAT      O46533   5.707   4.055   0.027
10861WAT     H146534   5.622   4.044   0.068
10861WAT     H246535   5.718   4.150   0.020
10862WAT      O46536   1.618   4.916  11.388
10862WAT     H146537   1.565   4.900  11.466
10862WAT     H246538   1.554   4.920  11.316
10863WAT      O46539   0.485   2.931   3.490
10863WAT     H146540   0.391   2.941   3.501
10863WAT     H246541   0.513   2.883   3.568
10864WAT      O46542   0.555   3.868   1.820
10864WAT     H146543   0.471   3.914   1.830
10864WAT     H246544   0.542   3.811   1.745
10865WAT      O46545   4.914   2.213   0.819
10865WAT     H146546   4.833   2.262   0.810
10865WAT     H246547   4.905   2.138   0.760
10866WAT      O46548   5.917   6.113   2.955
10866WAT     H146549   5.976   6.179   2.919
10866WAT     H246550   5.910   6.047   2.886
10867WAT      O46551   3.904   0.613   1.426
10867WAT     H146552   3.977   0.646   1.478
10867WAT     H246553   3.877   0.533   1.471
10868WAT      O46554   4.618   1.413   7.821
10868WAT     H146555   4.678   1.474   7.779
10868WAT     H246556   4.533   1.431   7.781
10869WAT      O46557   1.541   1.267  11.170
10869WAT     H146558   1.451   1.236  11.177
10869WAT     H246559   1.576   1.223  11.093
10870WAT      O46560   4.534   4.811  10.741
10870WAT     H146561   4.513   4.721  10.768
10870WAT     H246562   4.453   4.843  10.701
10871WAT      O46563   1.074   2.699   4.357
10871WAT     H146564   1.049   2.776   4.408
10871WAT     H246565   1.123   2.644   4.419
10872WAT      O46566   0.115   0.321   0.636
10872WAT     H146567   0.061   0.391   0.599
10872WAT     H246568   0.142   0.355   0.722
10873WAT      O46569   1.050   3.413   3.908
10873WAT     H146570   1.092   3.416   3.994
10873WAT     H246571   1.061   3.323   3.879
10874WAT      O46572   2.762   4.457  12.504
10874WAT     H146573   2.758   4.369  12.467
10874WAT     H246574   2.776   4.514  12.429
10875WAT      O46575   1.654   6.015  10.367
10875WAT     H146576   1.733   5.981  10.409
10875WAT     H246577   1.620   6.079  10.430
10876WAT      O46578   1.920   1.185   9.117
10876WAT     H146579   1.872   1.105   9.096
10876WAT     H246580   2.012   1.161   9.106
10877WAT      O46581   5.189   2.481   0.659
10877WAT     H146582   5.273   2.436   0.647
10877WAT     H246583   5.193   2.514   0.748
10878WAT      O46584   3.347   2.961   0.687
10878WAT     H146585   3.373   3.053   0.698
10878WAT     H246586   3.290   2.944   0.763
10879WAT      O46587   4.508   0.711   2.479
10879WAT     H146588   4.468   0.799   2.475
10879WAT     H246589   4.443   0.654   2.437
10880WAT      O46590   5.214   3.683   3.964
10880WAT     H146591   5.157   3.733   4.022
10880WAT     H246592   5.295   3.670   4.014
10881WAT      O46593   0.068   4.951  11.822
10881WAT     H146594   0.119   4.980  11.898
10881WAT     H246595   0.086   4.857  11.815
10882WAT      O46596   0.841   3.141   3.984
10882WAT     H146597   0.806   3.194   3.912
10882WAT     H246598   0.765   3.120   4.038
10883WAT      O46599   1.292   6.086   0.287
10883WAT     H146600   1.378   6.126   0.298
10883WAT     H246601   1.232   6.145   0.333
10884WAT      O46602   4.056   1.008  10.852
10884WAT     H146603   4.099   1.025  10.768
10884WAT     H246604   3.995   0.936  10.834
10885WAT      O46605   0.538   1.643   8.335
10885WAT     H146606   0.581   1.680   8.257
10885WAT     H246607   0.445   1.649   8.316
10886WAT      O46608   4.901   4.408   3.735
10886WAT     H146609   4.873   4.497   3.756
10886WAT     H246610   4.852   4.385   3.656
10887WAT      O46611   4.965   2.669   2.467
10887WAT     H146612   5.038   2.721   2.500
10887WAT     H246613   4.986   2.653   2.375
10888WAT      O46614   4.706   4.322   0.643
10888WAT     H146615   4.707   4.397   0.583
10888WAT     H246616   4.741   4.249   0.591
10889WAT      O46617   0.292   2.800   3.982
10889WAT     H146618   0.377   2.759   3.993
10889WAT     H246619   0.295   2.878   4.039
10890WAT      O46620   1.826   4.928  10.001
10890WAT     H146621   1.823   5.023   9.993
10890WAT     H246622   1.854   4.912  10.091
10891WAT      O46623   3.735   4.264   3.298
10891WAT     H146624   3.791   4.274   3.220
10891WAT     H246625   3.666   4.329   3.287
10892WAT      O46626   1.896   5.780   2.034
10892WAT     H146627   1.884   5.733   1.951
10892WAT     H246628   1.853   5.865   2.019
10893WAT      O46629   4.642   5.404  11.882
10893WAT     H146630   4.578   5.471  11.906
10893WAT     H246631   4.666   5.363  11.965
10894WAT      O46632   4.090   1.850   9.130
10894WAT     H146633   4.167   1.873   9.183
10894WAT     H246634   4.125   1.832   9.043
10895WAT      O46635   4.345   3.776   1.516
10895WAT     H146636   4.408   3.785   1.587
10895WAT     H246637   4.397   3.791   1.437
10896WAT      O46638   2.778   3.472  10.796
10896WAT     H146639   2.779   3.467  10.892
10896WAT     H246640   2.728   3.395  10.769
10897WAT      O46641   0.095   4.766   7.669
10897WAT     H146642   0.095   4.798   7.579
10897WAT     H246643   0.105   4.845   7.723
10898WAT      O46644   1.816   5.857   8.142
10898WAT     H146645   1.828   5.949   8.167
10898WAT     H246646   1.851   5.852   8.053
10899WAT      O46647   3.602   0.834  10.014
10899WAT     H146648   3.611   0.760   9.954
10899WAT     H246649   3.630   0.910   9.963
10900WAT      O46650   0.355   3.412   8.449
10900WAT     H146651   0.410   3.346   8.490
10900WAT     H246652   0.400   3.432   8.367
10901WAT      O46653   1.697   5.636  10.436
10901WAT     H146654   1.767   5.590  10.481
10901WAT     H246655   1.741   5.709  10.392
10902WAT      O46656   5.198   2.053  10.301
10902WAT     H146657   5.189   2.075  10.208
10902WAT     H246658   5.292   2.041  10.314
10903WAT      O46659   3.263   5.626  10.225
10903WAT     H146660   3.201   5.623  10.152
10903WAT     H246661   3.347   5.602  10.185
10904WAT      O46662   5.843   3.613   3.991
10904WAT     H146663   5.827   3.660   4.072
10904WAT     H246664   5.761   3.567   3.972
10905WAT      O46665   2.756   1.240   2.016
10905WAT     H146666   2.742   1.208   2.106
10905WAT     H246667   2.688   1.196   1.965
10906WAT      O46668   1.012   4.769   3.729
10906WAT     H146669   1.058   4.848   3.700
10906WAT     H246670   1.080   4.701   3.732
10907WAT      O46671   2.343   4.235  12.487
10907WAT     H146672   2.306   4.293  12.553
10907WAT     H246673   2.340   4.148  12.528
10908WAT      O46674   2.132   1.032  12.153
10908WAT     H146675   2.225   1.032  12.133
10908WAT     H246676   2.090   1.009  12.070
10909WAT      O46677   2.227   3.004   1.967
10909WAT     H146678   2.196   3.036   2.052
10909WAT     H246679   2.168   3.043   1.903
10910WAT      O46680   5.124   0.319   9.015
10910WAT     H146681   5.032   0.336   8.991
10910WAT     H246682   5.173   0.388   8.969
10911WAT      O46683   3.088   5.185  11.394
10911WAT     H146684   3.160   5.146  11.345
10911WAT     H246685   3.116   5.182  11.485
10912WAT      O46686   6.183   0.234  12.594
10912WAT     H146687   6.232   0.309  12.626
10912WAT     H246688   6.250   0.173  12.563
10913WAT      O46689   2.302   6.043  12.525
10913WAT     H146690   2.291   5.978  12.594
10913WAT     H246691   2.304   6.127  12.572
10914WAT      O46692   1.629   5.933   9.561
10914WAT     H146693   1.542   5.911   9.594
10914WAT     H246694   1.636   5.883   9.479
10915WAT      O46695   4.901   0.791   0.110
10915WAT     H146696   4.941   0.705   0.125
10915WAT     H246697   4.812   0.772   0.079
10916WAT      O46698   3.290   1.925   8.166
10916WAT     H146699   3.326   1.912   8.079
10916WAT     H246700   3.346   1.873   8.223
10917WAT      O46701   1.955   2.350  12.197
10917WAT     H146702   1.901   2.271  12.194
10917WAT     H246703   1.918   2.402  12.268
10918WAT      O46704   3.862   5.765   9.455
10918WAT     H146705   3.820   5.684   9.483
10918WAT     H246706   3.791   5.830   9.458
10919WAT      O46707   4.194   4.672   9.152
10919WAT     H146708   4.145   4.681   9.234
10919WAT     H246709   4.156   4.737   9.094
10920WAT      O46710   0.687   5.925   8.920
10920WAT     H146711   0.640   5.935   8.838
10920WAT     H246712   0.779   5.933   8.896
10921WAT      O46713   5.763   2.118   4.754
10921WAT     H146714   5.746   2.184   4.686
10921WAT     H246715   5.858   2.109   4.756
10922WAT      O46716   1.652   1.278   1.931
10922WAT     H146717   1.637   1.243   1.843
10922WAT     H246718   1.568   1.269   1.976
10923WAT      O46719   5.712   4.205   1.928
10923WAT     H146720   5.792   4.209   1.981
10923WAT     H246721   5.744   4.207   1.838
10924WAT      O46722   0.281   1.512   8.629
10924WAT     H146723   0.305   1.504   8.722
10924WAT     H246724   0.249   1.426   8.605
10925WAT      O46725   0.299   2.394  11.195
10925WAT     H146726   0.317   2.433  11.281
10925WAT     H246727   0.262   2.466  11.143
10926WAT      O46728   2.107   5.351   3.465
10926WAT     H146729   2.132   5.281   3.404
10926WAT     H246730   2.151   5.328   3.547
10927WAT      O46731   1.827   4.748   9.737
10927WAT     H146732   1.801   4.799   9.813
10927WAT     H246733   1.745   4.719   9.697
10928WAT      O46734   0.538   1.927   0.476
10928WAT     H146735   0.450   1.892   0.458
10928WAT     H246736   0.541   1.934   0.571
10929WAT      O46737   0.250   4.767   1.043
10929WAT     H146738   0.333   4.800   1.010
10929WAT     H246739   0.236   4.684   0.997
10930WAT      O46740   3.943   0.589   9.000
10930WAT     H146741   3.895   0.511   8.971
10930WAT     H246742   3.876   0.657   9.007
10931WAT      O46743   1.420   3.098  12.071
10931WAT     H146744   1.405   3.185  12.035
10931WAT     H246745   1.449   3.046  11.996
10932WAT      O46746   5.721   2.592   3.168
10932WAT     H146747   5.809   2.599   3.207
10932WAT     H246748   5.702   2.681   3.138
10933WAT      O46749   2.195   1.059  11.249
10933WAT     H146750   2.252   1.127  11.284
10933WAT     H246751   2.255   0.993  11.213
10934WAT      O46752   0.091   4.050   3.123
10934WAT     H146753   0.125   4.137   3.143
10934WAT     H246754   0.000   4.053   3.153
10935WAT      O46755   4.467   4.159   1.953
10935WAT     H146756   4.407   4.085   1.963
10935WAT     H246757   4.469   4.176   1.859
10936WAT      O46758   4.423   5.101   4.070
10936WAT     H146759   4.345   5.153   4.091
10936WAT     H246760   4.447   5.060   4.152
10937WAT      O46761   1.747   3.684  11.006
10937WAT     H146762   1.705   3.722  10.929
10937WAT     H246763   1.747   3.590  10.990
10938WAT      O46764   1.862   1.742   0.194
10938WAT     H146765   1.878   1.836   0.182
10938WAT     H246766   1.873   1.704   0.107
10939WAT      O46767   2.425   2.811   1.959
10939WAT     H146768   2.375   2.735   1.930
10939WAT     H246769   2.367   2.885   1.945
10940WAT      O46770   1.009   0.964  12.415
10940WAT     H146771   1.016   0.894  12.349
10940WAT     H246772   1.042   1.042  12.371
10941WAT      O46773   6.152   5.399   3.335
10941WAT     H146774   6.112   5.483   3.355
10941WAT     H246775   6.082   5.347   3.296
10942WAT      O46776   3.999   2.688   3.428
10942WAT     H146777   3.917   2.733   3.451
10942WAT     H246778   3.972   2.620   3.367
10943WAT      O46779   1.885   5.756  10.829
10943WAT     H146780   1.910   5.687  10.891
10943WAT     H246781   1.967   5.784  10.790
10944WAT      O46782   1.923   5.224   8.292
10944WAT     H146783   1.971   5.207   8.373
10944WAT     H246784   1.987   5.267   8.235
10945WAT      O46785   3.769   2.326  12.244
10945WAT     H146786   3.803   2.290  12.326
10945WAT     H246787   3.774   2.421  12.255
10946WAT      O46788   3.855   1.766   8.727
10946WAT     H146789   3.793   1.831   8.759
10946WAT     H246790   3.801   1.704   8.677
10947WAT      O46791   1.849   2.688   9.361
10947WAT     H146792   1.793   2.697   9.284
10947WAT     H246793   1.835   2.768   9.411
10948WAT      O46794   5.559   4.178   1.614
10948WAT     H146795   5.517   4.140   1.537
10948WAT     H246796   5.491   4.179   1.681
10949WAT      O46797   3.461   5.835   8.893
10949WAT     H146798   3.533   5.822   8.955
10949WAT     H246799   3.461   5.756   8.839
10950WAT      O46800   6.074   5.482  11.244
10950WAT     H146801   6.159   5.444  11.266
10950WAT     H246802   6.068   5.473  11.149
10951WAT      O46803   0.078   4.151  11.769
10951WAT     H146804   0.021   4.192  11.834
10951WAT     H246805   0.137   4.096  11.820
10952WAT      O46806   0.205   0.996   4.790
10952WAT     H146807   0.146   1.071   4.795
10952WAT     H246808   0.194   0.963   4.701
10953WAT      O46809   1.367   0.287   0.516
10953WAT     H146810   1.330   0.320   0.598
10953WAT     H246811   1.360   0.192   0.524
10954WAT      O46812   4.818   2.021   0.237
10954WAT     H146813   4.744   2.073   0.269
10954WAT     H246814   4.827   2.047   0.145
10955WAT      O46815   1.042   2.494   7.987
10955WAT     H146816   1.131   2.480   8.020
10955WAT     H246817   0.987   2.438   8.043
10956WAT      O46818   5.858   5.161   2.428
10956WAT     H146819   5.804   5.135   2.354
10956WAT     H246820   5.900   5.243   2.401
10957WAT      O46821   4.120   4.385   2.097
10957WAT     H146822   4.153   4.464   2.140
10957WAT     H246823   4.109   4.322   2.168
10958WAT      O46824   3.686   0.706   3.522
10958WAT     H146825   3.693   0.658   3.439
10958WAT     H246826   3.631   0.650   3.577
10959WAT      O46827   5.735   1.572  12.058
10959WAT     H146828   5.747   1.478  12.071
10959WAT     H246829   5.652   1.579  12.010
10960WAT      O46830   5.018   4.153   7.443
10960WAT     H146831   5.023   4.057   7.444
10960WAT     H246832   4.953   4.174   7.509
10961WAT      O46833   0.840   5.037   1.713
10961WAT     H146834   0.859   4.950   1.677
10961WAT     H246835   0.771   5.021   1.778
10962WAT      O46836   2.338   2.565  11.218
10962WAT     H146837   2.390   2.541  11.294
10962WAT     H246838   2.263   2.612  11.253
10963WAT      O46839   2.306   1.093   9.980
10963WAT     H146840   2.250   1.122   9.908
10963WAT     H246841   2.380   1.051   9.937
10964WAT      O46842   2.090   0.566   7.852
10964WAT     H146843   2.056   0.476   7.853
10964WAT     H246844   2.169   0.563   7.905
10965WAT      O46845   1.646   1.472  11.300
10965WAT     H146846   1.671   1.517  11.219
10965WAT     H246847   1.584   1.404  11.271
10966WAT      O46848   0.058   2.130   1.845
10966WAT     H146849   0.024   2.188   1.776
10966WAT     H246850   0.075   2.047   1.801
10967WAT      O46851   3.371   0.958   9.017
10967WAT     H146852   3.422   0.961   9.098
10967WAT     H246853   3.436   0.971   8.947
10968WAT      O46854   4.390   4.073   1.243
10968WAT     H146855   4.425   4.126   1.315
10968WAT     H246856   4.420   3.984   1.262
10969WAT      O46857   1.876   0.740  10.555
10969WAT     H146858   1.795   0.766  10.600
10969WAT     H246859   1.861   0.765  10.464
10970WAT      O46860   5.691   4.224  10.178
10970WAT     H146861   5.658   4.138  10.206
10970WAT     H246862   5.779   4.207  10.145
10971WAT      O46863   1.025   4.389   3.157
10971WAT     H146864   1.021   4.302   3.196
10971WAT     H246865   0.937   4.425   3.169
10972WAT      O46866   4.009   5.580   3.702
10972WAT     H146867   4.040   5.648   3.642
10972WAT     H246868   3.941   5.623   3.754
10973WAT      O46869   2.429   4.980   9.192
10973WAT     H146870   2.433   4.985   9.287
10973WAT     H246871   2.341   4.948   9.173
10974WAT      O46872   5.102   5.019   3.399
10974WAT     H146873   5.182   4.967   3.408
10974WAT     H246874   5.074   5.035   3.489
10975WAT      O46875   2.543   5.533   8.256
10975WAT     H146876   2.531   5.588   8.179
10975WAT     H246877   2.541   5.443   8.223
10976WAT      O46878   5.990   5.089   1.209
10976WAT     H146879   5.905   5.105   1.251
10976WAT     H246880   6.052   5.141   1.259
10977WAT      O46881   3.640   1.799   0.320
10977WAT     H146882   3.668   1.707   0.321
10977WAT     H246883   3.718   1.848   0.347
10978WAT      O46884   4.637   4.788   8.537
10978WAT     H146885   4.680   4.833   8.611
10978WAT     H246886   4.571   4.733   8.578
10979WAT      O46887   1.025   3.317   4.209
10979WAT     H146888   1.099   3.273   4.251
10979WAT     H246889   0.983   3.249   4.157
10980WAT      O46890   5.506   2.466  11.281
10980WAT     H146891   5.477   2.535  11.340
10980WAT     H246892   5.443   2.467  11.210
10981WAT      O46893   2.296   2.855  11.146
10981WAT     H146894   2.215   2.901  11.124
10981WAT     H246895   2.312   2.876  11.238
10982WAT      O46896   4.746   2.794   4.485
10982WAT     H146897   4.824   2.746   4.456
10982WAT     H246898   4.695   2.729   4.533
10983WAT      O46899   3.250   0.354   8.729
10983WAT     H146900   3.235   0.369   8.636
10983WAT     H246901   3.305   0.276   8.732
10984WAT      O46902   0.215   0.808   2.149
10984WAT     H146903   0.286   0.859   2.110
10984WAT     H246904   0.140   0.868   2.149
10985WAT      O46905   2.688   2.871   3.260
10985WAT     H146906   2.775   2.869   3.221
10985WAT     H246907   2.635   2.816   3.202
10986WAT      O46908   0.215   1.069   0.116
10986WAT     H146909   0.281   1.104   0.176
10986WAT     H246910   0.242   1.101   0.030
10987WAT      O46911   2.674   5.154   8.335
10987WAT     H146912   2.735   5.205   8.282
10987WAT     H246913   2.596   5.147   8.281
10988WAT      O46914   5.663   0.452   3.021
10988WAT     H146915   5.662   0.474   3.114
10988WAT     H246916   5.585   0.398   3.009
10989WAT      O46917   3.079   2.150  11.799
10989WAT     H146918   3.039   2.115  11.720
10989WAT     H246919   3.132   2.223  11.769
10990WAT      O46920   4.368   0.211   9.186
10990WAT     H146921   4.413   0.237   9.266
10990WAT     H246922   4.353   0.117   9.197
10991WAT      O46923   4.274   1.483   0.376
10991WAT     H146924   4.233   1.513   0.458
10991WAT     H246925   4.313   1.399   0.397
10992WAT      O46926   1.386   3.895   3.703
10992WAT     H146927   1.445   3.885   3.627
10992WAT     H246928   1.324   3.823   3.694
10993WAT      O46929   1.613   0.269   8.374
10993WAT     H146930   1.531   0.231   8.405
10993WAT     H246931   1.589   0.315   8.294
10994WAT      O46932   1.311   3.899   8.331
10994WAT     H146933   1.224   3.936   8.318
10994WAT     H246934   1.339   3.871   8.244
10995WAT      O46935   4.995   3.371   0.686
10995WAT     H146936   4.998   3.297   0.746
10995WAT     H246937   4.986   3.448   0.743
10996WAT      O46938   0.753   4.701   3.692
10996WAT     H146939   0.717   4.789   3.683
10996WAT     H246940   0.839   4.713   3.730
10997WAT      O46941   3.238   4.232  10.675
10997WAT     H146942   3.184   4.198  10.746
10997WAT     H246943   3.312   4.171  10.670
10998WAT      O46944   1.400   2.713  11.979
10998WAT     H146945   1.332   2.721  12.046
10998WAT     H246946   1.475   2.674  12.025
10999WAT      O46947   4.996   2.812   8.648
10999WAT     H146948   4.926   2.816   8.582
10999WAT     H246949   4.956   2.769   8.723
11000WAT      O46950   2.267   0.951   8.703
11000WAT     H146951   2.339   0.994   8.657
11000WAT     H246952   2.195   0.949   8.641
11001WAT      O46953   4.719   5.335   9.521
11001WAT     H146954   4.790   5.376   9.472
11001WAT     H246955   4.758   5.314   9.606
11002WAT      O46956   0.884   4.002   0.620
11002WAT     H146957   0.977   4.000   0.645
11002WAT     H246958   0.837   3.982   0.701
11003WAT      O46959   5.222   2.334  10.418
11003WAT     H146960   5.143   2.300  10.461
11003WAT     H246961   5.192   2.362  10.332
11004WAT      O46962   5.333   5.266  11.922
11004WAT     H146963   5.407   5.267  11.861
11004WAT     H246964   5.269   5.325  11.883
11005WAT      O46965   3.780   6.190  10.900
11005WAT     H146966   3.688   6.192  10.927
11005WAT     H246967   3.828   6.205  10.981
11006WAT      O46968   1.864   0.022   8.803
11006WAT     H146969   1.873  -0.002   8.711
11006WAT     H246970   1.953   0.014   8.839
11007WAT      O46971   2.928   2.141   4.005
11007WAT     H146972   2.996   2.161   3.941
11007WAT     H246973   2.926   2.046   4.010
11008WAT      O46974   3.875   1.578   1.956
11008WAT     H146975   3.845   1.655   2.005
11008WAT     H246976   3.798   1.522   1.949
11009WAT      O46977   3.013   4.455   2.125
11009WAT     H146978   2.943   4.391   2.134
11009WAT     H246979   3.002   4.513   2.201
11010WAT      O46980   2.326   0.423  11.725
11010WAT     H146981   2.385   0.410  11.799
11010WAT     H246982   2.263   0.488  11.756
11011WAT      O46983   5.537   0.500   2.498
11011WAT     H146984   5.590   0.575   2.523
11011WAT     H246985   5.571   0.473   2.413
11012WAT      O46986   6.035   3.589   8.582
11012WAT     H146987   6.094   3.528   8.537
11012WAT     H246988   5.962   3.534   8.612
11013WAT      O46989   1.795   5.824   0.127
11013WAT     H146990   1.872   5.812   0.071
11013WAT     H246991   1.806   5.759   0.197
11014WAT      O46992   5.741   3.781   9.615
11014WAT     H146993   5.788   3.772   9.532
11014WAT     H246994   5.783   3.717   9.673
11015WAT      O46995   2.939   2.562   9.937
11015WAT     H146996   2.861   2.592   9.890
11015WAT     H246997   2.943   2.618  10.014
11016WAT      O46998   3.949   0.650   1.932
11016WAT     H146999   3.931   0.693   2.016
11016WAT     H247000   3.997   0.716   1.881
11017WAT      O47001   1.982   5.477   8.956
11017WAT     H147002   1.934   5.559   8.972
11017WAT     H247003   2.059   5.484   9.012
11018WAT      O47004   1.933   2.163   9.221
11018WAT     H147005   1.977   2.205   9.295
11018WAT     H247006   1.869   2.229   9.191
11019WAT      O47007   0.540   4.037   3.586
11019WAT     H147008   0.525   4.025   3.492
11019WAT     H247009   0.479   4.106   3.611
11020WAT      O47010   4.493   0.235   3.316
11020WAT     H147011   4.528   0.320   3.288
11020WAT     H247012   4.403   0.254   3.342
11021WAT      O47013   5.177   2.656   7.918
11021WAT     H147014   5.124   2.577   7.912
11021WAT     H247015   5.162   2.702   7.835
11022WAT      O47016   5.466   4.236   2.020
11022WAT     H147017   5.558   4.223   1.996
11022WAT     H247018   5.467   4.310   2.080
11023WAT      O47019   5.693   5.202  10.227
11023WAT     H147020   5.696   5.122  10.279
11023WAT     H247021   5.783   5.235  10.229
11024WAT      O47022   4.489   3.795  12.217
11024WAT     H147023   4.450   3.831  12.138
11024WAT     H247024   4.580   3.776  12.192
11025WAT      O47025   5.309   2.193  12.378
11025WAT     H147026   5.368   2.264  12.354
11025WAT     H247027   5.252   2.231  12.446
11026WAT      O47028   1.082   3.043  11.557
11026WAT     H147029   1.037   3.127  11.561
11026WAT     H247030   1.011   2.979  11.549
11027WAT      O47031   1.193   2.695   3.720
11027WAT     H147032   1.262   2.744   3.764
11027WAT     H247033   1.237   2.654   3.645
11028WAT      O47034   4.819   5.268  10.063
11028WAT     H147035   4.885   5.336  10.048
11028WAT     H247036   4.756   5.310  10.122
11029WAT      O47037   2.387   6.125  12.237
11029WAT     H147038   2.348   6.072  12.306
11029WAT     H247039   2.474   6.086  12.223
11030WAT      O47040   2.708   4.315   1.737
11030WAT     H147041   2.647   4.330   1.664
11030WAT     H247042   2.731   4.402   1.768
11031WAT      O47043   1.666   3.947   2.339
11031WAT     H147044   1.646   3.910   2.425
11031WAT     H247045   1.605   3.904   2.279
11032WAT      O47046   4.509   1.046  10.648
11032WAT     H147047   4.459   1.056  10.729
11032WAT     H247048   4.558   0.965  10.660
11033WAT      O47049   3.996   3.515   9.473
11033WAT     H147050   3.905   3.484   9.478
11033WAT     H247051   4.047   3.449   9.519
11034WAT      O47052   0.035   3.736   8.332
11034WAT     H147053   0.034   3.800   8.261
11034WAT     H247054   0.043   3.788   8.411
11035WAT      O47055   1.012   6.151   3.139
11035WAT     H147056   1.016   6.096   3.217
11035WAT     H247057   0.980   6.092   3.070
11036WAT      O47058   3.193   5.381   1.844
11036WAT     H147059   3.173   5.413   1.932
11036WAT     H247060   3.138   5.304   1.833
11037WAT      O47061   1.126   2.218   7.958
11037WAT     H147062   1.119   2.284   7.889
11037WAT     H247063   1.068   2.147   7.928
11038WAT      O47064   2.642   1.978   0.217
11038WAT     H147065   2.630   2.027   0.299
11038WAT     H247066   2.654   1.887   0.245
11039WAT      O47067   0.541   2.720  11.903
11039WAT     H147068   0.488   2.702  11.980
11039WAT     H247069   0.531   2.813  11.887
11040WAT      O47070   2.949   4.640   0.504
11040WAT     H147071   2.905   4.710   0.551
11040WAT     H247072   2.889   4.618   0.432
11041WAT      O47073   6.010   2.291   1.608
11041WAT     H147074   5.994   2.196   1.616
11041WAT     H247075   5.961   2.329   1.680
11042WAT      O47076   0.813   0.741  11.804
11042WAT     H147077   0.784   0.651  11.789
11042WAT     H247078   0.903   0.731  11.837
11043WAT      O47079   1.481   5.763   2.079
11043WAT     H147080   1.530   5.802   2.007
11043WAT     H247081   1.444   5.683   2.043
11044WAT      O47082   3.851   4.064  11.882
11044WAT     H147083   3.938   4.039  11.915
11044WAT     H247084   3.868   4.103  11.796
11045WAT      O47085   1.796   1.802   1.786
11045WAT     H147086   1.790   1.836   1.875
11045WAT     H247087   1.714   1.754   1.773
11046WAT      O47088   5.110   3.665  12.289
11046WAT     H147089   5.086   3.756  12.307
11046WAT     H247090   5.152   3.669  12.203
11047WAT      O47091   4.509   5.205   3.435
11047WAT     H147092   4.564   5.148   3.488
11047WAT     H247093   4.486   5.153   3.358
11048WAT      O47094   6.013   1.126   0.317
11048WAT     H147095   5.995   1.098   0.227
11048WAT     H247096   6.091   1.077   0.342
11049WAT      O47097   5.549   5.744  10.719
11049WAT     H147098   5.523   5.794  10.642
11049WAT     H247099   5.595   5.808  10.774
11050WAT      O47100   3.823   1.373   8.234
11050WAT     H147101   3.764   1.447   8.224
11050WAT     H247102   3.772   1.297   8.207
11051WAT      O47103   4.960   1.592   1.110
11051WAT     H147104   4.996   1.509   1.080
11051WAT     H247105   4.938   1.577   1.202
11052WAT      O47106   2.662   1.255  10.459
11052WAT     H147107   2.569   1.266  10.441
11052WAT     H247108   2.695   1.344  10.472
11053WAT      O47109   5.623   5.386   9.736
11053WAT     H147110   5.589   5.314   9.789
11053WAT     H247111   5.547   5.440   9.715
11054WAT      O47112   5.702   4.060   8.315
11054WAT     H147113   5.782   4.069   8.264
11054WAT     H247114   5.633   4.048   8.249
11055WAT      O47115   5.753   5.824   8.005
11055WAT     H147116   5.705   5.905   7.988
11055WAT     H247117   5.825   5.825   7.942
11056WAT      O47118   4.460   1.924   0.329
11056WAT     H147119   4.394   1.969   0.276
11056WAT     H247120   4.478   1.984   0.401
11057WAT      O47121   5.407   1.376  11.916
11057WAT     H147122   5.399   1.366  12.011
11057WAT     H247123   5.321   1.354  11.882
11058WAT      O47124   4.802   4.251   3.017
11058WAT     H147125   4.892   4.223   3.001
11058WAT     H247126   4.751   4.207   2.949
11059WAT      O47127   1.158   3.645   1.349
11059WAT     H147128   1.219   3.671   1.280
11059WAT     H247129   1.210   3.645   1.429
11060WAT      O47130   5.768   5.222   9.554
11060WAT     H147131   5.728   5.265   9.630
11060WAT     H247132   5.847   5.272   9.537
11061WAT      O47133   1.403   5.412   8.955
11061WAT     H147134   1.432   5.375   9.039
11061WAT     H247135   1.310   5.391   8.950
11062WAT      O47136   2.205   3.071   0.880
11062WAT     H147137   2.287   3.056   0.832
11062WAT     H247138   2.153   2.992   0.864
11063WAT      O47139   1.230   4.221   3.498
11063WAT     H147140   1.306   4.195   3.550
11063WAT     H247141   1.183   4.283   3.554
11064WAT      O47142   0.035   5.083  11.590
11064WAT     H147143   0.114   5.070  11.537
11064WAT     H247144   0.053   5.036  11.671
11065WAT      O47145   3.177   5.528   9.939
11065WAT     H147146   3.156   5.454   9.882
11065WAT     H247147   3.221   5.591   9.881
11066WAT      O47148   2.246   3.964   4.570
11066WAT     H147149   2.268   4.057   4.566
11066WAT     H247150   2.328   3.919   4.551
11067WAT      O47151   4.610   5.964  10.354
11067WAT     H147152   4.678   5.897  10.365
11067WAT     H247153   4.602   6.003  10.441
11068WAT      O47154   2.980   5.755   0.236
11068WAT     H147155   3.029   5.738   0.155
11068WAT     H247156   3.045   5.744   0.306
11069WAT      O47157   1.304   4.181   3.230
11069WAT     H147158   1.314   4.086   3.240
11069WAT     H247159   1.296   4.214   3.319
11070WAT      O47160   5.666   3.277  11.921
11070WAT     H147161   5.641   3.188  11.946
11070WAT     H247162   5.622   3.333  11.985
11071WAT      O47163   2.703   4.508  10.716
11071WAT     H147164   2.776   4.481  10.773
11071WAT     H247165   2.724   4.469  10.631
11072WAT      O47166   3.278   4.708   4.637
11072WAT     H147167   3.366   4.678   4.614
11072WAT     H247168   3.260   4.778   4.575
11073WAT      O47169   5.254   4.395  12.089
11073WAT     H147170   5.307   4.371  12.012
11073WAT     H247171   5.265   4.490  12.096
11074WAT      O47172   0.530   3.300   0.085
11074WAT     H147173   0.570   3.228   0.037
11074WAT     H247174   0.471   3.341   0.022
11075WAT      O47175   4.965   1.713   9.804
11075WAT     H147176   4.892   1.672   9.758
11075WAT     H247177   4.971   1.665   9.887
11076WAT      O47178   0.214   3.369   2.585
11076WAT     H147179   0.297   3.416   2.592
11076WAT     H247180   0.236   3.289   2.538
11077WAT      O47181   1.645   0.555  10.455
11077WAT     H147182   1.692   0.604  10.523
11077WAT     H247183   1.631   0.619  10.385
11078WAT      O47184   4.855   6.066   0.387
11078WAT     H147185   4.918   6.047   0.456
11078WAT     H247186   4.785   6.002   0.400
11079WAT      O47187   2.408   4.075   8.831
11079WAT     H147188   2.455   4.064   8.748
11079WAT     H247189   2.374   4.164   8.828
11080WAT      O47190   3.010   1.606   9.705
11080WAT     H147191   2.938   1.647   9.753
11080WAT     H247192   3.008   1.647   9.619
11081WAT      O47193   0.811   1.887   2.242
11081WAT     H147194   0.842   1.962   2.190
11081WAT     H247195   0.877   1.878   2.311
11082WAT      O47196   6.222   0.340   1.359
11082WAT     H147197   6.179   0.382   1.434
11082WAT     H247198   6.173   0.370   1.283
11083WAT      O47199   2.665   2.421   4.443
11083WAT     H147200   2.585   2.387   4.484
11083WAT     H247201   2.686   2.499   4.493
11084WAT      O47202   4.803   1.103  10.895
11084WAT     H147203   4.857   1.051  10.955
11084WAT     H247204   4.770   1.174  10.949
11085WAT      O47205   0.672   5.483   2.765
11085WAT     H147206   0.681   5.541   2.840
11085WAT     H247207   0.759   5.446   2.752
11086WAT      O47208   4.068   4.097   0.192
11086WAT     H147209   4.007   4.022   0.194
11086WAT     H247210   4.034   4.157   0.258
11087WAT      O47211   1.618   2.893   0.002
11087WAT     H147212   1.592   2.955   0.071
11087WAT     H247213   1.712   2.884   0.012
11088WAT      O47214   1.946   3.249   0.760
11088WAT     H147215   2.041   3.262   0.750
11088WAT     H247216   1.931   3.160   0.731
11089WAT      O47217   2.090   4.023  11.076
11089WAT     H147218   2.037   4.074  11.014
11089WAT     H247219   2.038   3.945  11.094
11090WAT      O47220   5.203   0.782   8.158
11090WAT     H147221   5.222   0.807   8.068
11090WAT     H247222   5.115   0.745   8.155
11091WAT      O47223   5.059   2.493  11.770
11091WAT     H147224   5.029   2.571  11.816
11091WAT     H247225   5.110   2.527  11.696
11092WAT      O47226   0.538   0.318  12.503
11092WAT     H147227   0.477   0.319  12.577
11092WAT     H247228   0.482   0.299  12.427
11093WAT      O47229   1.326   1.852  11.098
11093WAT     H147230   1.250   1.795  11.089
11093WAT     H247231   1.380   1.809  11.164
11094WAT      O47232   0.366   1.830  10.849
11094WAT     H147233   0.415   1.846  10.768
11094WAT     H247234   0.412   1.883  10.915
11095WAT      O47235   5.740   4.672  11.739
11095WAT     H147236   5.705   4.593  11.782
11095WAT     H247237   5.808   4.702  11.799
11096WAT      O47238   6.061   1.981  10.649
11096WAT     H147239   6.150   2.012  10.632
11096WAT     H247240   6.014   2.060  10.678
11097WAT      O47241   3.656   2.602   3.069
11097WAT     H147242   3.713   2.663   3.116
11097WAT     H247243   3.601   2.564   3.137
11098WAT      O47244   1.969   4.035   8.569
11098WAT     H147245   1.904   3.970   8.543
11098WAT     H247246   1.959   4.043   8.664
11099WAT      O47247   1.272   3.811  10.444
11099WAT     H147248   1.362   3.780  10.448
11099WAT     H247249   1.269   3.863  10.364
11100WAT      O47250   3.253   2.260  11.497
11100WAT     H147251   3.236   2.314  11.574
11100WAT     H247252   3.166   2.233  11.467
11101WAT      O47253   2.327   4.808  11.703
11101WAT     H147254   2.251   4.860  11.677
11101WAT     H247255   2.398   4.838  11.646
11102WAT      O47256   0.551   4.989   1.032
11102WAT     H147257   0.517   4.971   1.120
11102WAT     H247258   0.537   4.909   0.983
11103WAT      O47259   1.494   3.843   9.007
11103WAT     H147260   1.586   3.842   8.980
11103WAT     H247261   1.498   3.839   9.103
11104WAT      O47262   2.226   4.625   8.838
11104WAT     H147263   2.263   4.705   8.875
11104WAT     H247264   2.141   4.617   8.881
11105WAT      O47265   1.545   0.791   1.036
11105WAT     H147266   1.573   0.812   1.125
11105WAT     H247267   1.450   0.784   1.041
11106WAT      O47268   4.271   6.205   9.740
11106WAT     H147269   4.255   6.122   9.786
11106WAT     H247270   4.184   6.245   9.732
11107WAT      O47271   4.179   5.851  11.609
11107WAT     H147272   4.233   5.781  11.571
11107WAT     H247273   4.099   5.850  11.556
11108WAT      O47274   5.561   1.570   0.322
11108WAT     H147275   5.613   1.489   0.322
11108WAT     H247276   5.474   1.542   0.350
11109WAT      O47277   3.656   0.940  11.010
11109WAT     H147278   3.661   1.020  11.063
11109WAT     H247279   3.571   0.902  11.033
11110WAT      O47280   4.003   4.250   7.949
11110WAT     H147281   3.993   4.321   7.885
11110WAT     H247282   4.021   4.295   8.032
11111WAT      O47283   1.169   3.597   4.190
11111WAT     H147284   1.107   3.525   4.199
11111WAT     H247285   1.251   3.563   4.226
11112WAT      O47286   1.871   2.541   2.939
11112WAT     H147287   1.886   2.536   2.845
11112WAT     H247288   1.776   2.536   2.949
11113WAT      O47289   1.748   0.997   2.849
11113WAT     H147290   1.753   0.904   2.870
11113WAT     H247291   1.698   1.000   2.767
11114WAT      O47292   4.362   5.204   9.689
11114WAT     H147293   4.291   5.266   9.710
11114WAT     H247294   4.417   5.251   9.626
11115WAT      O47295   3.900   3.903   2.176
11115WAT     H147296   3.901   3.948   2.261
11115WAT     H247297   3.956   3.956   2.120
11116WAT      O47298   1.179   1.505  11.587
11116WAT     H147299   1.216   1.593  11.580
11116WAT     H247300   1.169   1.475  11.497
11117WAT      O47301   3.643   3.897  12.287
11117WAT     H147302   3.728   3.890  12.244
11117WAT     H247303   3.624   3.991  12.288
11118WAT      O47304   5.470   6.168   3.659
11118WAT     H147305   5.481   6.090   3.714
11118WAT     H247306   5.392   6.211   3.694
11119WAT      O47307   1.933   0.206  10.942
11119WAT     H147308   2.005   0.242  10.993
11119WAT     H247309   1.943   0.244  10.855
11120WAT      O47310   1.185   1.926  12.503
11120WAT     H147311   1.253   1.965  12.558
11120WAT     H247312   1.197   1.967  12.417
11121WAT      O47313   1.064   5.472  10.468
11121WAT     H147314   1.132   5.537  10.449
11121WAT     H247315   1.094   5.393  10.423
11122WAT      O47316   6.144   1.553   1.581
11122WAT     H147317   6.050   1.559   1.564
11122WAT     H247318   6.166   1.462   1.561
11123WAT      O47319   0.270   3.808   9.197
11123WAT     H147320   0.188   3.771   9.227
11123WAT     H247321   0.245   3.889   9.152
11124WAT      O47322   1.507   6.007   8.372
11124WAT     H147323   1.581   6.064   8.352
11124WAT     H247324   1.473   6.040   8.456
11125WAT      O47325   1.426   3.415  12.280
11125WAT     H147326   1.438   3.344  12.343
11125WAT     H247327   1.333   3.412  12.258
11126WAT      O47328   2.838   0.072   0.899
11126WAT     H147329   2.744   0.093   0.901
11126WAT     H247330   2.880   0.151   0.866
11127WAT      O47331   3.013   0.794  10.274
11127WAT     H147332   2.992   0.867  10.331
11127WAT     H247333   3.106   0.804  10.254
11128WAT      O47334   4.030   1.913  10.050
11128WAT     H147335   4.035   1.931   9.956
11128WAT     H247336   4.121   1.913  10.080
11129WAT      O47337   2.288   4.967   1.155
11129WAT     H147338   2.322   4.888   1.198
11129WAT     H247339   2.356   5.033   1.168
11130WAT      O47340   1.418   3.593  12.044
11130WAT     H147341   1.366   3.660  12.087
11130WAT     H247342   1.444   3.534  12.115
11131WAT      O47343   5.937   5.304  10.252
11131WAT     H147344   5.997   5.284  10.324
11131WAT     H247345   5.968   5.388  10.218
11132WAT      O47346   3.941   2.208   9.161
11132WAT     H147347   3.868   2.257   9.122
11132WAT     H247348   3.957   2.251   9.245
11133WAT      O47349   2.824   2.202  12.115
11133WAT     H147350   2.780   2.241  12.191
11133WAT     H247351   2.916   2.194  12.142
11134WAT      O47352   0.293   1.031   9.840
11134WAT     H147353   0.353   1.005   9.770
11134WAT     H247354   0.209   1.044   9.797
11135WAT      O47355   1.399   5.370   0.128
11135WAT     H147356   1.353   5.444   0.088
11135WAT     H247357   1.373   5.371   0.220
11136WAT      O47358   1.482   4.717   7.916
11136WAT     H147359   1.481   4.759   8.002
11136WAT     H247360   1.538   4.773   7.863
11137WAT      O47361   1.453   5.830  10.197
11137WAT     H147362   1.381   5.879  10.238
11137WAT     H247363   1.527   5.842  10.258
11138WAT      O47364   3.389   0.834   8.274
11138WAT     H147365   3.365   0.804   8.186
11138WAT     H247366   3.305   0.846   8.319
11139WAT      O47367   3.406   4.847   2.632
11139WAT     H147368   3.346   4.892   2.691
11139WAT     H247369   3.391   4.888   2.547
11140WAT      O47370   4.024   3.383   1.305
11140WAT     H147371   3.941   3.401   1.349
11140WAT     H247372   4.074   3.464   1.314
11141WAT      O47373   5.349   1.570  10.875
11141WAT     H147374   5.360   1.478  10.897
11141WAT     H247375   5.437   1.602  10.859
11142WAT      O47376   0.559   1.758  10.232
11142WAT     H147377   0.494   1.765  10.162
11142WAT     H247378   0.538   1.830  10.291
11143WAT      O47379   3.135   2.338   4.308
11143WAT     H147380   3.117   2.277   4.379
11143WAT     H247381   3.110   2.424   4.343
11144WAT      O47382   1.235   0.721   2.949
11144WAT     H147383   1.283   0.726   3.032
11144WAT     H247384   1.207   0.811   2.932
11145WAT      O47385   1.514   0.086   2.009
11145WAT     H147386   1.602   0.049   2.007
11145WAT     H247387   1.528   0.180   2.015
11146WAT      O47388   4.312   5.119   9.238
11146WAT     H147389   4.379   5.082   9.295
11146WAT     H247390   4.354   5.194   9.195
11147WAT      O47391   5.276   1.089   9.848
11147WAT     H147392   5.341   1.098   9.778
11147WAT     H247393   5.315   1.134   9.923
11148WAT      O47394   1.105   5.411   1.236
11148WAT     H147395   1.026   5.358   1.228
11148WAT     H247396   1.096   5.478   1.168
11149WAT      O47397   1.733   1.535   0.756
11149WAT     H147398   1.713   1.569   0.843
11149WAT     H247399   1.659   1.563   0.702
11150WAT      O47400   3.585   2.381   0.335
11150WAT     H147401   3.494   2.354   0.349
11150WAT     H247402   3.636   2.300   0.341
11151WAT      O47403   0.443   2.008  10.315
11151WAT     H147404   0.531   2.015  10.351
11151WAT     H247405   0.407   2.096  10.322
11152WAT      O47406   5.480   4.497   0.163
11152WAT     H147407   5.539   4.458   0.229
11152WAT     H247408   5.411   4.431   0.151
11153WAT      O47409   3.422   0.016   9.161
11153WAT     H147410   3.392   0.082   9.224
11153WAT     H247411   3.443   0.066   9.082
11154WAT      O47412   1.058   0.368   9.229
11154WAT     H147413   1.150   0.384   9.251
11154WAT     H247414   1.058   0.359   9.134
11155WAT      O47415   5.740   1.014   0.846
11155WAT     H147416   5.812   0.954   0.864
11155WAT     H247417   5.673   0.991   0.910
11156WAT      O47418   4.358   4.423  11.290
11156WAT     H147419   4.337   4.361  11.360
11156WAT     H247420   4.291   4.491  11.298
11157WAT      O47421   3.211   5.243   1.066
11157WAT     H147422   3.171   5.206   1.144
11157WAT     H247423   3.262   5.171   1.028
11158WAT      O47424   6.060   3.176   7.619
11158WAT     H147425   6.005   3.199   7.693
11158WAT     H247426   6.113   3.102   7.650
11159WAT      O47427   1.909   4.456  12.639
11159WAT     H147428   1.934   4.416  12.555
11159WAT     H247429   1.829   4.411  12.665
11160WAT      O47430   5.713   5.103   2.191
11160WAT     H147431   5.661   5.027   2.165
11160WAT     H247432   5.723   5.153   2.110
11161WAT      O47433   0.157   0.666  11.003
11161WAT     H147434   0.076   0.715  11.017
11161WAT     H247435   0.130   0.590  10.951
11162WAT      O47436   1.107   5.628  11.693
11162WAT     H147437   1.107   5.707  11.639
11162WAT     H247438   1.042   5.645  11.761
11163WAT      O47439   3.553   0.224   3.568
11163WAT     H147440   3.556   0.131   3.589
11163WAT     H247441   3.608   0.266   3.634
11164WAT      O47442   3.175   5.140   5.072
11164WAT     H147443   3.122   5.061   5.062
11164WAT     H247444   3.117   5.204   5.113
11165WAT      O47445   0.288   4.595   8.690
11165WAT     H147446   0.311   4.678   8.648
11165WAT     H247447   0.368   4.542   8.683
11166WAT      O47448   5.211   5.147   7.511
11166WAT     H147449   5.297   5.126   7.547
11166WAT     H247450   5.163   5.064   7.513
11167WAT      O47451   5.109   5.534  10.353
11167WAT     H147452   5.087   5.479  10.278
11167WAT     H247453   5.090   5.623  10.324
11168WAT      O47454   4.830   2.592  11.471
11168WAT     H147455   4.798   2.533  11.540
11168WAT     H247456   4.772   2.669  11.478
11169WAT      O47457   0.429   6.104   3.021
11169WAT     H147458   0.451   6.196   3.037
11169WAT     H247459   0.360   6.084   3.083
11170WAT      O47460   6.163   0.608   3.610
11170WAT     H147461   6.128   0.696   3.595
11170WAT     H247462   6.111   0.572   3.681
11171WAT      O47463   5.608   4.769   2.699
11171WAT     H147464   5.553   4.780   2.777
11171WAT     H247465   5.696   4.796   2.728
11172WAT      O47466   2.251   5.240   1.358
11172WAT     H147467   2.230   5.286   1.438
11172WAT     H247468   2.197   5.161   1.360
11173WAT      O47469   6.017   3.107  11.462
11173WAT     H147470   5.990   3.118  11.371
11173WAT     H247471   5.961   3.167  11.511
11174WAT      O47472   2.153   2.195   9.040
11174WAT     H147473   2.140   2.288   9.056
11174WAT     H247474   2.093   2.151   9.100
11175WAT      O47475   4.685   2.010  11.499
11175WAT     H147476   4.730   1.935  11.537
11175WAT     H247477   4.753   2.077  11.490
11176WAT      O47478   4.494   5.659  11.727
11176WAT     H147479   4.570   5.600  11.727
11176WAT     H247480   4.453   5.646  11.642
11177WAT      O47481   2.988   0.763   2.384
11177WAT     H147482   2.932   0.685   2.378
11177WAT     H247483   3.024   0.772   2.296
11178WAT      O47484   2.855   5.095  10.478
11178WAT     H147485   2.913   5.044  10.534
11178WAT     H247486   2.841   5.039  10.402
11179WAT      O47487   5.263   4.388  10.032
11179WAT     H147488   5.257   4.384   9.937
11179WAT     H247489   5.196   4.452  10.058
11180WAT      O47490   0.902   1.887   8.995
11180WAT     H147491   0.826   1.843   9.033
11180WAT     H247492   0.977   1.839   9.029
11181WAT      O47493   0.069   0.686   4.422
11181WAT     H147494  -0.023   0.682   4.394
11181WAT     H247495   0.117   0.706   4.341
11182WAT      O47496   1.624   2.147   8.770
11182WAT     H147497   1.542   2.097   8.772
11182WAT     H247498   1.664   2.126   8.686
11183WAT      O47499   0.079   1.926   4.803
11183WAT     H147500   0.154   1.874   4.830
11183WAT     H247501   0.104   2.016   4.824
11184WAT      O47502   5.483   2.199  10.795
11184WAT     H147503   5.463   2.227  10.705
11184WAT     H247504   5.527   2.115  10.784
11185WAT      O47505   1.309   3.513   2.631
11185WAT     H147506   1.285   3.545   2.718
11185WAT     H247507   1.326   3.420   2.643
11186WAT      O47508   1.495   5.975   3.505
11186WAT     H147509   1.440   5.904   3.474
11186WAT     H247510   1.568   5.932   3.549
11187WAT      O47511   0.268   4.014  10.547
11187WAT     H147512   0.220   3.966  10.614
11187WAT     H247513   0.329   3.949  10.510
11188WAT      O47514   0.256   2.476   3.447
11188WAT     H147515   0.267   2.526   3.528
11188WAT     H247516   0.162   2.471   3.434
11189WAT      O47517   1.411   5.673   0.188
11189WAT     H147518   1.495   5.656   0.229
11189WAT     H247519   1.350   5.686   0.261
11190WAT      O47520   3.608   2.009   8.363
11190WAT     H147521   3.574   1.919   8.368
11190WAT     H247522   3.664   2.008   8.286
11191WAT      O47523   0.607   2.490   1.187
11191WAT     H147524   0.557   2.528   1.259
11191WAT     H247525   0.633   2.404   1.219
11192WAT      O47526   4.862   1.576   2.665
11192WAT     H147527   4.906   1.613   2.741
11192WAT     H247528   4.829   1.652   2.617
11193WAT      O47529   3.366   1.548  10.291
11193WAT     H147530   3.344   1.597  10.371
11193WAT     H247531   3.316   1.467  10.299
11194WAT      O47532   2.721   2.745   8.963
11194WAT     H147533   2.705   2.691   9.041
11194WAT     H247534   2.805   2.787   8.980
11195WAT      O47535   2.852   1.882   4.030
11195WAT     H147536   2.876   1.856   4.119
11195WAT     H247537   2.912   1.834   3.973
11196WAT      O47538   5.438   1.504   1.598
11196WAT     H147539   5.433   1.597   1.573
11196WAT     H247540   5.524   1.496   1.639
11197WAT      O47541   0.464   5.609   9.496
11197WAT     H147542   0.541   5.554   9.478
11197WAT     H247543   0.445   5.594   9.588
11198WAT      O47544   0.529   5.750  11.228
11198WAT     H147545   0.532   5.834  11.183
11198WAT     H247546   0.443   5.714  11.205
11199WAT      O47547   0.481   4.256   4.587
11199WAT     H147548   0.488   4.235   4.494
11199WAT     H247549   0.393   4.293   4.596
11200WAT      O47550   2.767   5.713  10.799
11200WAT     H147551   2.826   5.785  10.820
11200WAT     H247552   2.798   5.682  10.713
11201WAT      O47553   3.605   4.514  10.330
11201WAT     H147554   3.553   4.438  10.305
11201WAT     H247555   3.630   4.554  10.247
11202WAT      O47556   2.882   0.560   8.588
11202WAT     H147557   2.942   0.559   8.664
11202WAT     H247558   2.817   0.627   8.611
11203WAT      O47559   2.250   4.899   1.869
11203WAT     H147560   2.170   4.886   1.920
11203WAT     H247561   2.221   4.901   1.778
11204WAT      O47562   5.087   5.878   3.776
11204WAT     H147563   5.066   5.971   3.768
11204WAT     H247564   5.069   5.857   3.867
11205WAT      O47565   0.556   5.276  12.514
11205WAT     H147566   0.488   5.300  12.452
11205WAT     H247567   0.540   5.183  12.533
11206WAT      O47568   3.562   1.221  11.893
11206WAT     H147569   3.632   1.156  11.899
11206WAT     H247570   3.586   1.274  11.817
11207WAT      O47571   3.840   2.310  12.510
11207WAT     H147572   3.925   2.315  12.553
11207WAT     H247573   3.781   2.359  12.567
11208WAT      O47574   2.399   1.700   0.438
11208WAT     H147575   2.378   1.645   0.514
11208WAT     H247576   2.346   1.779   0.450
11209WAT      O47577   6.078   6.059  11.981
11209WAT     H147578   6.158   6.022  11.945
11209WAT     H247579   6.036   5.987  12.027
11210WAT      O47580   0.874   6.089  11.817
11210WAT     H147581   0.833   6.030  11.881
11210WAT     H247582   0.801   6.115  11.759
11211WAT      O47583   4.577   2.964   2.314
11211WAT     H147584   4.568   3.021   2.237
11211WAT     H247585   4.488   2.934   2.332
11212WAT      O47586   2.798   3.784   7.917
11212WAT     H147587   2.755   3.766   8.001
11212WAT     H247588   2.881   3.736   7.922
11213WAT      O47589   4.938   0.123   1.560
11213WAT     H147590   5.007   0.066   1.527
11213WAT     H247591   4.981   0.207   1.575
11214WAT      O47592   3.718   5.471   3.408
11214WAT     H147593   3.664   5.400   3.444
11214WAT     H247594   3.714   5.459   3.314
11215WAT      O47595   2.148   0.884   9.971
11215WAT     H147596   2.202   0.806   9.966
11215WAT     H247597   2.210   0.956   9.979
11216WAT      O47598   3.015   3.526  10.367
11216WAT     H147599   2.947   3.588  10.339
11216WAT     H247600   3.013   3.530  10.463
11217WAT      O47601   0.753   2.895  12.515
11217WAT     H147602   0.734   2.924  12.426
11217WAT     H247603   0.750   2.800  12.511
11218WAT      O47604   3.256   2.272  10.520
11218WAT     H147605   3.318   2.313  10.460
11218WAT     H247606   3.172   2.274  10.474
11219WAT      O47607   3.033   5.483   3.619
11219WAT     H147608   3.028   5.508   3.711
11219WAT     H247609   2.960   5.530   3.578
11220WAT      O47610   1.971   2.659   1.816
11220WAT     H147611   1.899   2.612   1.859
11220WAT     H247612   1.937   2.680   1.729
11221WAT      O47613   2.599   1.744  10.249
11221WAT     H147614   2.640   1.830  10.260
11221WAT     H247615   2.596   1.730  10.155
11222WAT      O47616   0.297   0.495   1.811
11222WAT     H147617   0.269   0.585   1.826
11222WAT     H247618   0.243   0.443   1.870
11223WAT      O47619   1.844   0.040  12.602
11223WAT     H147620   1.823   0.019  12.511
11223WAT     H247621   1.759   0.046  12.645
11224WAT      O47622   1.076   0.201  11.460
11224WAT     H147623   1.039   0.280  11.420
11224WAT     H247624   1.168   0.202  11.436
11225WAT      O47625   1.505   5.197   4.374
11225WAT     H147626   1.464   5.122   4.417
11225WAT     H247627   1.568   5.230   4.438
11226WAT      O47628   3.376   1.099  12.207
11226WAT     H147629   3.323   1.155  12.150
11226WAT     H247630   3.442   1.157  12.244
11227WAT      O47631   2.356   3.987   4.309
11227WAT     H147632   2.387   3.915   4.365
11227WAT     H247633   2.337   4.058   4.370
11228WAT      O47634   1.111   4.932   8.741
11228WAT     H147635   1.062   4.992   8.797
11228WAT     H247636   1.188   4.908   8.793
11229WAT      O47637   2.127   2.880   0.346
11229WAT     H147638   2.187   2.908   0.276
11229WAT     H247639   2.063   2.825   0.301
11230WAT      O47640   3.435   2.929  11.078
11230WAT     H147641   3.343   2.902  11.085
11230WAT     H247642   3.473   2.869  11.013
11231WAT      O47643   5.487   1.512   1.100
11231WAT     H147644   5.475   1.570   1.176
11231WAT     H247645   5.415   1.534   1.042
11232WAT      O47646   5.664   1.754   2.228
11232WAT     H147647   5.743   1.746   2.173
11232WAT     H247648   5.650   1.667   2.263
11233WAT      O47649   5.590   4.576  10.788
11233WAT     H147650   5.684   4.593  10.786
11233WAT     H247651   5.571   4.558  10.881
11234WAT      O47652   5.940   4.614   2.845
11234WAT     H147653   5.872   4.551   2.822
11234WAT     H247654   5.892   4.694   2.867
11235WAT      O47655   2.108   0.338   1.300
11235WAT     H147656   2.124   0.334   1.395
11235WAT     H247657   2.193   0.316   1.261
11236WAT      O47658   4.921   0.917   0.983
11236WAT     H147659   4.871   0.963   1.050
11236WAT     H247660   5.004   0.964   0.978
11237WAT      O47661   5.769   5.026  11.147
11237WAT     H147662   5.854   5.065  11.130
11237WAT     H247663   5.768   5.008  11.241
11238WAT      O47664   5.823  -0.010   3.222
11238WAT     H147665   5.825  -0.021   3.127
11238WAT     H247666   5.820   0.085   3.235
11239WAT      O47667   0.784   4.253   1.639
11239WAT     H147668   0.692   4.256   1.614
11239WAT     H247669   0.803   4.160   1.650
11240WAT      O47670   1.742   3.968  10.339
11240WAT     H147671   1.818   4.000  10.290
11240WAT     H247672   1.671   3.970  10.275
11241WAT      O47673   5.173   5.738  11.388
11241WAT     H147674   5.219   5.661  11.355
11241WAT     H247675   5.169   5.797  11.312
11242WAT      O47676   5.529   1.067   3.586
11242WAT     H147677   5.526   1.159   3.561
11242WAT     H247678   5.616   1.038   3.559
11243WAT      O47679   4.184   1.673   0.802
11243WAT     H147680   4.099   1.701   0.768
11243WAT     H247681   4.195   1.723   0.883
11244WAT      O47682   4.335   2.750  11.216
11244WAT     H147683   4.338   2.679  11.280
11244WAT     H247684   4.426   2.767  11.194
11245WAT      O47685   3.064   5.179  12.677
11245WAT     H147686   3.069   5.237  12.602
11245WAT     H247687   3.149   5.188  12.720
11246WAT      O47688   4.030   5.538  10.251
11246WAT     H147689   4.080   5.476  10.304
11246WAT     H247690   4.096   5.576  10.192
11247WAT      O47691   1.485   5.564   1.276
11247WAT     H147692   1.463   5.473   1.298
11247WAT     H247693   1.564   5.557   1.222
11248WAT      O47694   1.577   1.744   4.340
11248WAT     H147695   1.486   1.721   4.357
11248WAT     H247696   1.575   1.788   4.255
11249WAT      O47697   3.962   3.440   9.014
11249WAT     H147698   3.890   3.386   9.047
11249WAT     H247699   3.969   3.511   9.078
11250WAT      O47700   6.147   2.190  10.154
11250WAT     H147701   6.165   2.284  10.150
11250WAT     H247702   6.186   2.154  10.074
11251WAT      O47703   2.700   4.470   9.237
11251WAT     H147704   2.627   4.518   9.199
11251WAT     H247705   2.680   4.466   9.331
11252WAT      O47706   0.627   0.228   4.390
11252WAT     H147707   0.537   0.199   4.373
11252WAT     H247708   0.674   0.148   4.413
11253WAT      O47709   3.754   0.639   1.086
11253WAT     H147710   3.692   0.703   1.120
11253WAT     H247711   3.712   0.554   1.102
11254WAT      O47712   5.108   5.645   8.059
11254WAT     H147713   5.157   5.565   8.042
11254WAT     H247714   5.077   5.672   7.973
11255WAT      O47715   4.890   5.859   0.159
11255WAT     H147716   4.937   5.941   0.172
11255WAT     H247717   4.884   5.849   0.064
11256WAT      O47718   5.292   3.674   0.755
11256WAT     H147719   5.224   3.739   0.739
11256WAT     H247720   5.254   3.615   0.820
11257WAT      O47721   5.350   3.362   0.590
11257WAT     H147722   5.383   3.420   0.521
11257WAT     H247723   5.281   3.413   0.632
11258WAT      O47724   5.336   2.644  11.118
11258WAT     H147725   5.258   2.696  11.133
11258WAT     H247726   5.313   2.586  11.045
11259WAT      O47727   1.832   3.260   2.238
11259WAT     H147728   1.766   3.211   2.287
11259WAT     H247729   1.821   3.351   2.266
11260WAT      O47730   5.071   2.119   1.588
11260WAT     H147731   5.113   2.186   1.535
11260WAT     H247732   5.113   2.127   1.674
11261WAT      O47733   3.976   2.227  12.097
11261WAT     H147734   3.910   2.282  12.140
11261WAT     H247735   3.932   2.143  12.085
11262WAT      O47736   1.725   3.654   1.299
11262WAT     H147737   1.750   3.631   1.389
11262WAT     H247738   1.657   3.721   1.309
11263WAT      O47739   1.503   2.765  10.296
11263WAT     H147740   1.549   2.845  10.322
11263WAT     H247741   1.427   2.761  10.353
11264WAT      O47742   0.757   2.888   1.083
11264WAT     H147743   0.713   2.807   1.055
11264WAT     H247744   0.850   2.872   1.064
11265WAT      O47745   3.755   0.014  11.885
11265WAT     H147746   3.770   0.074  11.959
11265WAT     H247747   3.771   0.068  11.808
11266WAT      O47748   5.315   3.807  12.091
11266WAT     H147749   5.298   3.901  12.098
11266WAT     H247750   5.261   3.779  12.018
11267WAT      O47751   4.373   5.949  10.196
11267WAT     H147752   4.449   5.961  10.139
11267WAT     H247753   4.408   5.959  10.284
11268WAT      O47754   0.082   5.353   0.466
11268WAT     H147755   0.013   5.349   0.533
11268WAT     H247756   0.115   5.263   0.460
11269WAT      O47757   2.689   3.478  12.438
11269WAT     H147758   2.745   3.438  12.505
11269WAT     H247759   2.733   3.458  12.355
11270WAT      O47760   4.127   5.607   9.873
11270WAT     H147761   4.155   5.631   9.961
11270WAT     H247762   4.048   5.659   9.858
11271WAT      O47763   3.865   5.728   4.298
11271WAT     H147764   3.956   5.703   4.285
11271WAT     H247765   3.830   5.660   4.356
11272WAT      O47766   2.504   2.918   8.397
11272WAT     H147767   2.480   2.829   8.373
11272WAT     H247768   2.579   2.908   8.455
11273WAT      O47769   2.451   3.840  10.307
11273WAT     H147770   2.381   3.775  10.307
11273WAT     H247771   2.442   3.885  10.223
11274WAT      O47772   2.742   0.212  11.908
11274WAT     H147773   2.785   0.221  11.822
11274WAT     H247774   2.789   0.273  11.964
11275WAT      O47775   5.993   2.023   1.594
11275WAT     H147776   6.063   1.959   1.606
11275WAT     H247777   5.944   1.991   1.518
11276WAT      O47778   0.173   3.736   2.358
11276WAT     H147779   0.094   3.698   2.396
11276WAT     H247780   0.145   3.823   2.329
11277WAT      O47781   1.376   5.545   1.946
11277WAT     H147782   1.285   5.528   1.922
11277WAT     H247783   1.421   5.462   1.926
11278WAT      O47784   3.590   2.199   8.045
11278WAT     H147785   3.661   2.136   8.054
11278WAT     H247786   3.633   2.278   8.011
11279WAT      O47787   4.106   2.357   9.692
11279WAT     H147788   4.177   2.335   9.751
11279WAT     H247789   4.149   2.374   9.608
11280WAT      O47790   1.085   3.559   8.496
11280WAT     H147791   1.013   3.507   8.531
11280WAT     H247792   1.131   3.499   8.437
11281WAT      O47793   0.181   1.866   8.374
11281WAT     H147794   0.187   1.863   8.470
11281WAT     H247795   0.087   1.865   8.356
11282WAT      O47796   1.007   1.995  11.055
11282WAT     H147797   0.983   1.923  10.996
11282WAT     H247798   0.989   2.074  11.004
11283WAT      O47799   1.792   2.942  11.498
11283WAT     H147800   1.783   3.036  11.483
11283WAT     H247801   1.827   2.908  11.416
11284WAT      O47802   5.711   0.476   9.216
11284WAT     H147803   5.748   0.394   9.248
11284WAT     H247804   5.731   0.539   9.284
11285WAT      O47805   1.157   4.156  12.253
11285WAT     H147806   1.220   4.105  12.305
11285WAT     H247807   1.072   4.118  12.276
11286WAT      O47808   2.738   3.361   0.741
11286WAT     H147809   2.790   3.423   0.792
11286WAT     H247810   2.800   3.321   0.680
11287WAT      O47811   3.254   5.226   1.500
11287WAT     H147812   3.258   5.302   1.558
11287WAT     H247813   3.165   5.226   1.466
11288WAT      O47814   5.804   6.035   3.434
11288WAT     H147815   5.816   6.084   3.353
11288WAT     H247816   5.710   6.040   3.451
11289WAT      O47817   2.981   3.837   9.159
11289WAT     H147818   3.072   3.808   9.166
11289WAT     H247819   2.986   3.920   9.111
11290WAT      O47820   1.312   3.649   2.384
11290WAT     H147821   1.296   3.622   2.474
11290WAT     H247822   1.239   3.708   2.363
11291WAT      O47823   0.374   3.105   3.802
11291WAT     H147824   0.370   3.082   3.710
11291WAT     H247825   0.286   3.088   3.835
11292WAT      O47826   5.256   4.961   9.933
11292WAT     H147827   5.290   5.045   9.904
11292WAT     H247828   5.210   4.981  10.015
11293WAT      O47829   5.468   0.450   9.053
11293WAT     H147830   5.540   0.486   9.104
11293WAT     H247831   5.418   0.526   9.024
11294WAT      O47832   4.631   5.728  11.229
11294WAT     H147833   4.639   5.637  11.259
11294WAT     H247834   4.661   5.781  11.303
11295WAT      O47835   0.915   6.187   1.771
11295WAT     H147836   0.927   6.155   1.861
11295WAT     H247837   0.823   6.212   1.767
11296WAT      O47838   5.282   3.157  11.349
11296WAT     H147839   5.300   3.189  11.438
11296WAT     H247840   5.194   3.187  11.330
11297WAT      O47841   5.348   1.484   0.726
11297WAT     H147842   5.297   1.522   0.798
11297WAT     H247843   5.293   1.494   0.649
11298WAT      O47844   3.403   1.427   9.125
11298WAT     H147845   3.404   1.441   9.219
11298WAT     H247846   3.481   1.374   9.107
11299WAT      O47847   2.789   5.123   4.015
11299WAT     H147848   2.821   5.072   3.940
11299WAT     H247849   2.765   5.208   3.979
11300WAT      O47850   1.357   5.689   4.476
11300WAT     H147851   1.331   5.720   4.563
11300WAT     H247852   1.422   5.621   4.494
11301WAT      O47853   3.211   4.164  11.395
11301WAT     H147854   3.284   4.103  11.400
11301WAT     H247855   3.245   4.245  11.434
11302WAT      O47856   6.199   5.648   3.718
11302WAT     H147857   6.283   5.603   3.706
11302WAT     H247858   6.224   5.737   3.745
11303WAT      O47859   1.293   5.773   4.726
11303WAT     H147860   1.294   5.863   4.757
11303WAT     H247861   1.200   5.751   4.720
11304WAT      O47862   5.703   3.932  10.939
11304WAT     H147863   5.709   4.009  10.995
11304WAT     H247864   5.652   3.961  10.863
11305WAT      O47865   3.044   2.069  10.028
11305WAT     H147866   3.058   2.159  10.001
11305WAT     H247867   3.042   2.019   9.946
11306WAT      O47868   1.465   2.265   9.554
11306WAT     H147869   1.509   2.350   9.554
11306WAT     H247870   1.462   2.240   9.461
11307WAT      O47871   2.716   1.107   9.528
11307WAT     H147872   2.654   1.035   9.535
11307WAT     H247873   2.683   1.173   9.590
11308WAT      O47874   4.285   0.124   8.051
11308WAT     H147875   4.313   0.135   8.142
11308WAT     H247876   4.327   0.196   8.004
11309WAT      O47877   1.696   0.649   9.671
11309WAT     H147878   1.630   0.621   9.608
11309WAT     H247879   1.697   0.744   9.664
11310WAT      O47880   3.372   3.229   4.420
11310WAT     H147881   3.392   3.153   4.474
11310WAT     H247882   3.279   3.220   4.399
11311WAT      O47883   5.097   0.011  10.030
11311WAT     H147884   5.137  -0.007   9.945
11311WAT     H247885   5.055   0.097  10.019
11312WAT      O47886   5.313   5.862   0.554
11312WAT     H147887   5.312   5.918   0.632
11312WAT     H247888   5.403   5.830   0.549
11313WAT      O47889   5.326   2.547   2.298
11313WAT     H147890   5.301   2.621   2.243
11313WAT     H247891   5.298   2.570   2.386
11314WAT      O47892   5.806   0.772   3.358
11314WAT     H147893   5.859   0.718   3.299
11314WAT     H247894   5.766   0.709   3.418
11315WAT      O47895   2.580   4.674   9.934
11315WAT     H147896   2.640   4.720   9.876
11315WAT     H247897   2.546   4.602   9.880
11316WAT      O47898   4.165   4.005  10.461
11316WAT     H147899   4.114   4.018  10.541
11316WAT     H247900   4.119   4.056  10.395
11317WAT      O47901   3.860   0.959   9.182
11317WAT     H147902   3.953   0.940   9.191
11317WAT     H247903   3.849   0.977   9.088
11318WAT      O47904   3.838   2.501  10.822
11318WAT     H147905   3.877   2.491  10.735
11318WAT     H247906   3.748   2.471  10.813
11319WAT      O47907   3.070   1.985   0.670
11319WAT     H147908   3.158   1.954   0.693
11319WAT     H247909   3.049   2.050   0.737
11320WAT      O47910   5.294   4.325   3.248
11320WAT     H147911   5.373   4.370   3.276
11320WAT     H247912   5.325   4.248   3.201
11321WAT      O47913   3.501   4.350   3.538
11321WAT     H147914   3.453   4.398   3.605
11321WAT     H247915   3.494   4.405   3.460
11322WAT      O47916   1.499   6.221   9.347
11322WAT     H147917   1.406   6.203   9.360
11322WAT     H247918   1.536   6.222   9.435
11323WAT      O47919   3.043   4.908   9.727
11323WAT     H147920   3.133   4.931   9.750
11323WAT     H247921   3.003   4.990   9.698
11324WAT      O47922   5.856   0.401  10.861
11324WAT     H147923   5.866   0.308  10.840
11324WAT     H247924   5.761   0.415  10.864
11325WAT      O47925   5.739   3.701   9.968
11325WAT     H147926   5.715   3.793   9.958
11325WAT     H247927   5.700   3.675  10.051
11326WAT      O47928   3.865   3.054   2.739
11326WAT     H147929   3.819   2.971   2.742
11326WAT     H247930   3.796   3.120   2.746
11327WAT      O47931   5.693   3.236   1.010
11327WAT     H147932   5.706   3.226   1.105
11327WAT     H247933   5.625   3.302   1.002
11328WAT      O47934   5.610   1.412   1.396
11328WAT     H147935   5.588   1.323   1.370
11328WAT     H247936   5.530   1.446   1.434
11329WAT      O47937   6.043   3.998   0.434
11329WAT     H147938   5.949   3.981   0.437
11329WAT     H247939   6.050   4.093   0.434
11330WAT      O47940   1.379   0.582   3.167
11330WAT     H147941   1.314   0.583   3.237
11330WAT     H247942   1.352   0.511   3.109
11331WAT      O47943   2.866   1.153   4.530
11331WAT     H147944   2.835   1.106   4.452
11331WAT     H247945   2.943   1.201   4.499
11332WAT      O47946   4.332   4.770  10.359
11332WAT     H147947   4.297   4.743  10.444
11332WAT     H247948   4.283   4.719  10.296
11333WAT      O47949   1.566   2.117   0.458
11333WAT     H147950   1.547   2.185   0.522
11333WAT     H247951   1.555   2.160   0.373
11334WAT      O47952   1.372   2.019   9.646
11334WAT     H147953   1.398   2.110   9.636
11334WAT     H247954   1.346   2.010   9.737
11335WAT      O47955   5.217   6.073  11.263
11335WAT     H147956   5.229   6.094  11.170
11335WAT     H247957   5.167   5.991  11.263
11336WAT      O47958   3.231   5.953   8.658
11336WAT     H147959   3.272   5.963   8.744
11336WAT     H247960   3.296   5.987   8.596
11337WAT      O47961   2.811   4.858  11.868
11337WAT     H147962   2.784   4.767  11.878
11337WAT     H247963   2.762   4.904  11.937
11338WAT      O47964   3.893   3.650   2.924
11338WAT     H147965   3.852   3.731   2.893
11338WAT     H247966   3.902   3.596   2.845
11339WAT      O47967   3.004   5.505   8.597
11339WAT     H147968   3.022   5.593   8.629
11339WAT     H247969   3.013   5.449   8.674
11340WAT      O47970   5.320   4.813   3.603
11340WAT     H147971   5.324   4.855   3.517
11340WAT     H247972   5.412   4.798   3.626
11341WAT      O47973   1.047   0.675   4.549
11341WAT     H147974   1.125   0.644   4.595
11341WAT     H247975   0.977   0.668   4.614
11342WAT      O47976   2.434   1.574   1.941
11342WAT     H147977   2.347   1.599   1.971
11342WAT     H247978   2.448   1.486   1.976
11343WAT      O47979   1.204   4.002   8.794
11343WAT     H147980   1.195   4.032   8.703
11343WAT     H247981   1.264   3.928   8.790
11344WAT      O47982   0.449   0.063   9.087
11344WAT     H147983   0.539   0.046   9.115
11344WAT     H247984   0.398  -0.009   9.123
11345WAT      O47985   1.361   4.305   8.152
11345WAT     H147986   1.404   4.222   8.174
11345WAT     H247987   1.268   4.289   8.167
11346WAT      O47988   1.457   0.498   1.661
11346WAT     H147989   1.412   0.567   1.709
11346WAT     H247990   1.396   0.472   1.592
11347WAT      O47991   3.880   4.583   0.878
11347WAT     H147992   3.887   4.678   0.891
11347WAT     H247993   3.970   4.555   0.863
11348WAT      O47994   2.316   6.134   9.572
11348WAT     H147995   2.313   6.098   9.484
11348WAT     H247996   2.288   6.225   9.562
11349WAT      O47997   1.829   3.131   8.660
11349WAT     H147998   1.753   3.087   8.622
11349WAT     H247999   1.899   3.118   8.596
11350WAT      O48000   4.008   0.360   3.202
11350WAT     H148001   4.016   0.383   3.109
11350WAT     H248002   3.914   0.345   3.214
11351WAT      O48003   4.856   3.489   9.370
11351WAT     H148004   4.914   3.525   9.303
11351WAT     H248005   4.894   3.516   9.453
11352WAT      O48006   0.241   5.376   9.967
11352WAT     H148007   0.155   5.356  10.004
11352WAT     H248008   0.302   5.327  10.022
11353WAT      O48009   3.407   4.134   1.229
11353WAT     H148010   3.421   4.126   1.134
11353WAT     H248011   3.454   4.213   1.253
11354WAT      O48012   1.180   3.213  10.126
11354WAT     H148013   1.104   3.203  10.184
11354WAT     H248014   1.225   3.129  10.131
11355WAT      O48015   0.403   5.049  10.503
11355WAT     H148016   0.311   5.023  10.495
11355WAT     H248017   0.419   5.051  10.598
11356WAT      O48018   0.704   0.165   9.285
11356WAT     H148019   0.738   0.173   9.195
11356WAT     H248020   0.782   0.151   9.338
11357WAT      O48021   2.227   2.165   9.647
11357WAT     H148022   2.148   2.216   9.667
11357WAT     H248023   2.237   2.174   9.552
11358WAT      O48024   2.464   3.200   2.105
11358WAT     H148025   2.395   3.242   2.054
11358WAT     H248026   2.500   3.271   2.159
11359WAT      O48027   0.770   5.129   3.020
11359WAT     H148028   0.787   5.066   2.950
11359WAT     H248029   0.766   5.076   3.100
11360WAT      O48030   4.413   5.379   8.615
11360WAT     H148031   4.359   5.353   8.689
11360WAT     H248032   4.502   5.355   8.641
11361WAT      O48033   0.130   4.699   4.380
11361WAT     H148034   0.113   4.624   4.322
11361WAT     H248035   0.193   4.666   4.444
11362WAT      O48036   4.999   3.245  12.395
11362WAT     H148037   5.051   3.238  12.475
11362WAT     H248038   5.031   3.174  12.340
11363WAT      O48039   1.842   3.871   1.916
11363WAT     H148040   1.907   3.801   1.910
11363WAT     H248041   1.866   3.919   1.995
11364WAT      O48042   3.052   0.570   8.816
11364WAT     H148043   2.999   0.578   8.896
11364WAT     H248044   3.086   0.480   8.819
11365WAT      O48045   1.900   2.328   4.090
11365WAT     H148046   1.984   2.302   4.128
11365WAT     H248047   1.857   2.245   4.070
11366WAT      O48048   1.385   3.485   4.329
11366WAT     H148049   1.414   3.567   4.370
11366WAT     H248050   1.400   3.419   4.397
11367WAT      O48051   5.651   1.583  10.292
11367WAT     H148052   5.637   1.550  10.381
11367WAT     H248053   5.699   1.665  10.304
11368WAT      O48054   2.456   1.315   3.307
11368WAT     H148055   2.451   1.319   3.212
11368WAT     H248056   2.479   1.404   3.334
11369WAT      O48057   4.796   4.057   7.884
11369WAT     H148058   4.864   3.992   7.901
11369WAT     H248059   4.822   4.098   7.801
11370WAT      O48060   1.547   1.892  10.583
11370WAT     H148061   1.571   1.931  10.667
11370WAT     H248062   1.614   1.825  10.567
11371WAT      O48063   2.492   4.678   2.282
11371WAT     H148064   2.438   4.755   2.264
11371WAT     H248065   2.464   4.649   2.369
11372WAT      O48066   4.099   4.202  11.186
11372WAT     H148067   4.188   4.198  11.219
11372WAT     H248068   4.090   4.125  11.130
11373WAT      O48069   4.733   6.011   4.074
11373WAT     H148070   4.690   5.935   4.035
11373WAT     H248071   4.661   6.070   4.098
11374WAT      O48072   1.614   0.765  10.702
11374WAT     H148073   1.559   0.823  10.650
11374WAT     H248074   1.565   0.753  10.784
11375WAT      O48075   3.218   0.971  11.211
11375WAT     H148076   3.151   0.970  11.280
11375WAT     H248077   3.239   1.064  11.200
11376WAT      O48078   4.679   0.046   2.113
11376WAT     H148079   4.708   0.104   2.183
11376WAT     H248080   4.741   0.061   2.042
11377WAT      O48081   4.413   4.329  11.983
11377WAT     H148082   4.473   4.401  12.003
11377WAT     H248083   4.370   4.311  12.067
11378WAT      O48084   3.345   0.825   2.964
11378WAT     H148085   3.351   0.791   2.875
11378WAT     H248086   3.425   0.877   2.975
11379WAT      O48087   2.903   1.639   1.134
11379WAT     H148088   2.965   1.677   1.197
11379WAT     H248089   2.817   1.660   1.171
11380WAT      O48090   1.119   4.939   9.671
11380WAT     H148091   1.058   5.013   9.673
11380WAT     H248092   1.063   4.862   9.661
11381WAT      O48093   3.343   6.067   8.144
11381WAT     H148094   3.437   6.088   8.148
11381WAT     H248095   3.337   5.998   8.077
11382WAT      O48096   4.128   4.843   4.457
11382WAT     H148097   4.200   4.859   4.517
11382WAT     H248098   4.135   4.912   4.391
11383WAT      O48099   0.747   3.072  11.794
11383WAT     H148100   0.773   3.056  11.704
11383WAT     H248101   0.778   2.995  11.843
11384WAT      O48102   5.663   1.267   7.300
11384WAT     H148103   5.704   1.203   7.359
11384WAT     H248104   5.590   1.303   7.350
11385WAT      O48105   1.135   5.333  10.724
11385WAT     H148106   1.070   5.272  10.688
11385WAT     H248107   1.109   5.418  10.691
11386WAT      O48108   0.927   1.173  10.504
11386WAT     H148109   0.912   1.233  10.577
11386WAT     H248110   0.859   1.106  10.514
11387WAT      O48111   2.932   3.317   0.959
11387WAT     H148112   2.891   3.234   0.935
11387WAT     H248113   2.859   3.378   0.968
11388WAT      O48114   1.551   2.124  12.490
11388WAT     H148115   1.469   2.154  12.531
11388WAT     H248116   1.594   2.073  12.559
11389WAT      O48117   3.427   3.483   2.391
11389WAT     H148118   3.333   3.476   2.405
11389WAT     H248119   3.442   3.439   2.307
11390WAT      O48120   0.717   3.171   8.172
11390WAT     H148121   0.649   3.219   8.125
11390WAT     H248122   0.784   3.152   8.106
11391WAT      O48123   0.361   6.010  10.791
11391WAT     H148124   0.432   5.970  10.841
11391WAT     H248125   0.395   6.095  10.763
11392WAT      O48126   4.223   4.386   1.350
11392WAT     H148127   4.195   4.349   1.434
11392WAT     H248128   4.312   4.354   1.339
11393WAT      O48129   4.312   3.814  11.460
11393WAT     H148130   4.382   3.764  11.417
11393WAT     H248131   4.239   3.753  11.466
11394WAT      O48132   0.239   2.605   9.060
11394WAT     H148133   0.271   2.690   9.030
11394WAT     H248134   0.281   2.591   9.144
11395WAT      O48135   2.326   5.797   8.163
11395WAT     H148136   2.342   5.793   8.069
11395WAT     H248137   2.302   5.707   8.186
11396WAT      O48138   4.883   2.772   2.812
11396WAT     H148139   4.883   2.856   2.766
11396WAT     H248140   4.858   2.795   2.902
11397WAT      O48141   3.389   2.983   9.418
11397WAT     H148142   3.313   2.965   9.474
11397WAT     H248143   3.363   2.951   9.332
11398WAT      O48144   2.770   3.791  12.661
11398WAT     H148145   2.781   3.799  12.566
11398WAT     H248146   2.694   3.734  12.672
11399WAT      O48147   2.758   1.889  10.021
11399WAT     H148148   2.749   1.983  10.032
11399WAT     H248149   2.781   1.877   9.928
11400WAT      O48150   2.372   0.392   4.588
11400WAT     H148151   2.277   0.392   4.593
11400WAT     H248152   2.397   0.483   4.607
11401WAT      O48153   2.315   6.113   9.058
11401WAT     H148154   2.363   6.031   9.049
11401WAT     H248155   2.356   6.171   8.993
11402WAT      O48156   4.290   5.404   4.192
11402WAT     H148157   4.246   5.323   4.165
11402WAT     H248158   4.374   5.375   4.227
11403WAT      O48159   0.456   3.642   9.069
11403WAT     H148160   0.521   3.689   9.016
11403WAT     H248161   0.415   3.710   9.122
11404WAT      O48162   4.388   4.351   3.285
11404WAT     H148163   4.364   4.431   3.331
11404WAT     H248164   4.482   4.358   3.270
11405WAT      O48165   0.060   5.973   4.941
11405WAT     H148166   0.067   6.068   4.937
11405WAT     H248167   0.147   5.941   4.917
11406WAT      O48168   5.358   1.169  11.243
11406WAT     H148169   5.425   1.168  11.175
11406WAT     H248170   5.396   1.223  11.313
11407WAT      O48171   3.933   4.519  -0.021
11407WAT     H148172   3.914   4.426  -0.013
11407WAT     H248173   3.892   4.558   0.056
11408WAT      O48174   2.624   5.365   4.275
11408WAT     H148175   2.710   5.390   4.239
11408WAT     H248176   2.634   5.377   4.369
11409WAT      O48177   1.374   5.900   5.016
11409WAT     H148178   1.441   5.955   5.057
11409WAT     H248179   1.344   5.952   4.940
11410WAT      O48180   5.788   1.374   8.676
11410WAT     H148181   5.774   1.333   8.761
11410WAT     H248182   5.703   1.369   8.632
11411WAT      O48183   1.205   1.490   8.072
11411WAT     H148184   1.262   1.510   8.146
11411WAT     H248185   1.234   1.403   8.043
11412WAT      O48186   2.423   4.134   1.623
11412WAT     H148187   2.380   4.103   1.543
11412WAT     H248188   2.380   4.087   1.694
11413WAT      O48189   3.345   1.442  10.607
11413WAT     H148190   3.279   1.386  10.567
11413WAT     H248191   3.421   1.385  10.619
11414WAT      O48192   0.215   3.553   0.498
11414WAT     H148193   0.124   3.533   0.521
11414WAT     H248194   0.251   3.469   0.470
11415WAT      O48195   2.111   5.098   2.600
11415WAT     H148196   2.075   5.089   2.512
11415WAT     H248197   2.075   5.180   2.632
11416WAT      O48198   1.150   1.118   1.242
11416WAT     H148199   1.150   1.130   1.147
11416WAT     H248200   1.059   1.095   1.263
11417WAT      O48201   1.712   4.743   4.655
11417WAT     H148202   1.774   4.690   4.705
11417WAT     H248203   1.724   4.832   4.687
11418WAT      O48204   4.743   1.938   7.221
11418WAT     H148205   4.760   1.987   7.140
11418WAT     H248206   4.790   1.856   7.209
11419WAT      O48207   5.136   1.545   1.959
11419WAT     H148208   5.111   1.454   1.946
11419WAT     H248209   5.143   1.555   2.054
11420WAT      O48210   2.139   5.437   1.873
11420WAT     H148211   2.223   5.406   1.839
11420WAT     H248212   2.152   5.531   1.884
11421WAT      O48213   5.967   4.337  10.665
11421WAT     H148214   5.936   4.347  10.575
11421WAT     H248215   6.056   4.372  10.664
11422WAT      O48216   0.584   0.217   1.183
11422WAT     H148217   0.557   0.305   1.157
11422WAT     H248218   0.597   0.223   1.278
11423WAT      O48219   2.788   2.185   8.437
11423WAT     H148220   2.775   2.180   8.343
11423WAT     H248221   2.712   2.233   8.470
11424WAT      O48222   3.658   1.431   2.876
11424WAT     H148223   3.653   1.403   2.967
11424WAT     H248224   3.596   1.375   2.829
11425WAT      O48225   2.982   1.384   9.171
11425WAT     H148226   3.014   1.372   9.260
11425WAT     H248227   2.890   1.410   9.182
11426WAT      O48228   1.672   1.266   0.884
11426WAT     H148229   1.765   1.247   0.895
11426WAT     H248230   1.656   1.256   0.790
11427WAT      O48231   4.070   5.749  12.060
11427WAT     H148232   4.022   5.831  12.071
11427WAT     H248233   4.141   5.770  11.999
11428WAT      O48234   1.080   2.378  10.375
11428WAT     H148235   1.050   2.446  10.316
11428WAT     H248236   1.058   2.296  10.331
11429WAT      O48237   1.652   5.382   2.738
11429WAT     H148238   1.576   5.417   2.785
11429WAT     H248239   1.642   5.417   2.649
11430WAT      O48240   0.167   5.574   0.123
11430WAT     H148241   0.218   5.590   0.043
11430WAT     H248242   0.147   5.661   0.156
11431WAT      O48243   5.792   5.521   2.858
11431WAT     H148244   5.851   5.449   2.881
11431WAT     H248245   5.721   5.515   2.923
11432WAT      O48246   2.306   3.165  11.432
11432WAT     H148247   2.244   3.206  11.371
11432WAT     H248248   2.312   3.074  11.402
11433WAT      O48249   4.373   1.277   1.929
11433WAT     H148250   4.412   1.330   1.999
11433WAT     H248251   4.391   1.326   1.849
11434WAT      O48252   1.675   4.376  12.305
11434WAT     H148253   1.764   4.385  12.271
11434WAT     H248254   1.625   4.445  12.261
11435WAT      O48255   2.323   4.208  11.432
11435WAT     H148256   2.237   4.249  11.426
11435WAT     H248257   2.363   4.247  11.510
11436WAT      O48258   0.894   4.003   9.788
11436WAT     H148259   0.834   4.076   9.806
11436WAT     H248260   0.964   4.042   9.736
11437WAT      O48261   2.910   1.050  12.419
11437WAT     H148262   2.931   0.957  12.424
11437WAT     H248263   2.832   1.061  12.474
11438WAT      O48264   1.056   0.927   1.932
11438WAT     H148265   1.067   0.972   2.016
11438WAT     H248266   1.078   0.994   1.866
11439WAT      O48267   2.960   2.047   7.779
11439WAT     H148268   2.999   1.969   7.818
11439WAT     H248269   3.012   2.120   7.813
11440WAT      O48270   3.605   4.449   2.741
11440WAT     H148271   3.585   4.539   2.766
11440WAT     H248272   3.521   4.412   2.713
11441WAT      O48273   6.027   1.101  11.069
11441WAT     H148274   5.960   1.032  11.069
11441WAT     H248275   6.071   1.091  10.985
11442WAT      O48276   1.600   4.912   0.767
11442WAT     H148277   1.668   4.845   0.757
11442WAT     H248278   1.527   4.867   0.810
11443WAT      O48279   5.024   3.402  11.586
11443WAT     H148280   5.031   3.488  11.543
11443WAT     H248281   5.114   3.381  11.610
11444WAT      O48282   5.062   0.207   3.028
11444WAT     H148283   4.987   0.201   3.087
11444WAT     H248284   5.023   0.218   2.941
11445WAT      O48285   0.548   0.133  11.539
11445WAT     H148286   0.590   0.149  11.454
11445WAT     H248287   0.498   0.213  11.557
11446WAT      O48288   5.186   5.387   3.563
11446WAT     H148289   5.234   5.364   3.642
11446WAT     H248290   5.112   5.439   3.595
11447WAT      O48291   0.389   2.559   8.768
11447WAT     H148292   0.471   2.610   8.768
11447WAT     H248293   0.347   2.581   8.851
11448WAT      O48294   5.257   4.456   1.727
11448WAT     H148295   5.274   4.411   1.644
11448WAT     H248296   5.230   4.544   1.700
11449WAT      O48297   2.151   3.081   1.353
11449WAT     H148298   2.092   3.140   1.400
11449WAT     H248299   2.225   3.070   1.413
11450WAT      O48300   6.259   5.412  10.121
11450WAT     H148301   6.262   5.399  10.216
11450WAT     H248302   6.171   5.445  10.103
11451WAT      O48303   0.620   4.460  11.319
11451WAT     H148304   0.599   4.410  11.398
11451WAT     H248305   0.618   4.395  11.249
11452WAT      O48306   5.157   1.688  11.027
11452WAT     H148307   5.241   1.665  10.987
11452WAT     H248308   5.091   1.649  10.971
11453WAT      O48309   1.716   5.907   5.298
11453WAT     H148310   1.807   5.890   5.274
11453WAT     H248311   1.715   5.901   5.393
11454WAT      O48312   3.007   5.666   1.598
11454WAT     H148313   2.951   5.631   1.529
11454WAT     H248314   2.951   5.667   1.676
11455WAT      O48315   2.990   4.519   8.284
11455WAT     H148316   2.976   4.444   8.226
11455WAT     H248317   3.076   4.554   8.258
11456WAT      O48318   4.979   5.530   1.726
11456WAT     H148319   4.924   5.486   1.790
11456WAT     H248320   4.919   5.591   1.681
11457WAT      O48321   4.100   2.009  10.830
11457WAT     H148322   4.196   2.012  10.836
11457WAT     H248323   4.083   1.955  10.753
11458WAT      O48324   4.201   2.192   1.882
11458WAT     H148325   4.149   2.120   1.916
11458WAT     H248326   4.188   2.263   1.945
11459WAT      O48327   3.409   1.216   0.360
11459WAT     H148328   3.459   1.177   0.431
11459WAT     H248329   3.327   1.245   0.400
11460WAT      O48330   5.094   1.768   4.211
11460WAT     H148331   5.104   1.762   4.306
11460WAT     H248332   5.130   1.686   4.178
11461WAT      O48333   5.682   6.170  12.236
11461WAT     H148334   5.643   6.243  12.285
11461WAT     H248335   5.608   6.118  12.207
11462WAT      O48336   2.564   3.490  11.784
11462WAT     H148337   2.512   3.566  11.810
11462WAT     H248338   2.512   3.448  11.715
11463WAT      O48339   3.571   2.802   0.659
11463WAT     H148340   3.498   2.860   0.682
11463WAT     H248341   3.539   2.752   0.584
11464WAT      O48342   4.449   2.628   9.253
11464WAT     H148343   4.465   2.711   9.208
11464WAT     H248344   4.454   2.650   9.346
11465WAT      O48345   3.767   2.286   4.178
11465WAT     H148346   3.855   2.259   4.205
11465WAT     H248347   3.713   2.270   4.256
11466WAT      O48348   4.222   5.469   1.215
11466WAT     H148349   4.160   5.464   1.288
11466WAT     H248350   4.193   5.545   1.165
11467WAT      O48351   3.708   1.981   9.980
11467WAT     H148352   3.693   1.945  10.067
11467WAT     H248353   3.709   1.904   9.923
11468WAT      O48354   4.200   4.104  12.645
11468WAT     H148355   4.169   4.123  12.733
11468WAT     H248356   4.274   4.045  12.657
11469WAT      O48357   0.881   3.127  10.013
11469WAT     H148358   0.908   3.101  10.101
11469WAT     H248359   0.941   3.081   9.955
11470WAT      O48360   2.524   0.158  11.786
11470WAT     H148361   2.600   0.178  11.841
11470WAT     H248362   2.449   0.191  11.836
11471WAT      O48363   3.830   2.099  10.556
11471WAT     H148364   3.793   2.126  10.640
11471WAT     H248365   3.784   2.019  10.533
11472WAT      O48366   6.083   4.301   8.653
11472WAT     H148367   6.071   4.222   8.600
11472WAT     H248368   6.002   4.350   8.641
11473WAT      O48369   1.824   1.985  10.894
11473WAT     H148370   1.793   2.035  10.970
11473WAT     H248371   1.832   2.050  10.824
11474WAT      O48372   0.426   4.481   2.492
11474WAT     H148373   0.393   4.499   2.404
11474WAT     H248374   0.350   4.447   2.539
11475WAT      O48375   5.198   5.790   2.928
11475WAT     H148376   5.235   5.878   2.933
11475WAT     H248377   5.115   5.796   2.976
11476WAT      O48378   3.227   2.377   1.353
11476WAT     H148379   3.244   2.324   1.431
11476WAT     H248380   3.302   2.436   1.348
11477WAT      O48381   6.059   5.496   7.875
11477WAT     H148382   6.151   5.497   7.848
11477WAT     H248383   6.033   5.404   7.869
11478WAT      O48384   2.549   0.312   8.770
11478WAT     H148385   2.628   0.270   8.737
11478WAT     H248386   2.481   0.289   8.707
11479WAT      O48387   1.476   2.737   3.274
11479WAT     H148388   1.563   2.698   3.282
11479WAT     H248389   1.492   2.827   3.247
11480WAT      O48390   3.341   4.662  11.057
11480WAT     H148391   3.257   4.705  11.041
11480WAT     H248392   3.318   4.581  11.102
11481WAT      O48393   4.988   5.520  10.093
11481WAT     H148394   5.032   5.485  10.015
11481WAT     H248395   5.018   5.611  10.098
11482WAT      O48396   5.845   4.746  11.498
11482WAT     H148397   5.842   4.740  11.593
11482WAT     H248398   5.754   4.733  11.471
11483WAT      O48399   3.322   3.607  10.466
11483WAT     H148400   3.318   3.598  10.370
11483WAT     H248401   3.288   3.524  10.499
11484WAT      O48402   3.648   0.266   9.684
11484WAT     H148403   3.724   0.318   9.658
11484WAT     H248404   3.582   0.287   9.619
11485WAT      O48405   3.313   5.979  11.096
11485WAT     H148406   3.251   5.944  11.160
11485WAT     H248407   3.283   6.069  11.080
11486WAT      O48408   1.026   0.467   5.193
11486WAT     H148409   0.982   0.490   5.112
11486WAT     H248410   0.983   0.520   5.260
11487WAT      O48411   0.571   5.299   1.035
11487WAT     H148412   0.579   5.210   1.001
11487WAT     H248413   0.575   5.355   0.957
11488WAT      O48414   4.370   1.452   4.462
11488WAT     H148415   4.343   1.544   4.460
11488WAT     H248416   4.396   1.436   4.552
11489WAT      O48417   1.273   0.037  11.007
11489WAT     H148418   1.246   0.067  10.920
11489WAT     H248419   1.351   0.090  11.028
11490WAT      O48420   2.366   4.621   0.631
11490WAT     H148421   2.298   4.557   0.613
11490WAT     H248422   2.364   4.632   0.727
11491WAT      O48423   1.452   5.359  11.508
11491WAT     H148424   1.430   5.277  11.462
11491WAT     H248425   1.528   5.393  11.460
11492WAT      O48426   5.048   0.967  12.639
11492WAT     H148427   5.100   1.026  12.694
11492WAT     H248428   5.010   0.904  12.700
11493WAT      O48429   2.407   1.969   8.706
11493WAT     H148430   2.490   1.930   8.735
11493WAT     H248431   2.414   1.970   8.610
11494WAT      O48432   3.529   1.965  12.551
11494WAT     H148433   3.517   1.877  12.586
11494WAT     H248434   3.622   1.983  12.560
11495WAT      O48435   2.328   1.943   3.228
11495WAT     H148436   2.401   1.883   3.218
11495WAT     H248437   2.306   1.969   3.138
11496WAT      O48438   6.080   3.951   9.514
11496WAT     H148439   6.031   4.020   9.470
11496WAT     H248440   6.066   3.968   9.607
11497WAT      O48441   2.202   3.581  11.004
11497WAT     H148442   2.208   3.582  10.909
11497WAT     H248443   2.249   3.503  11.031
11498WAT      O48444   3.026   1.802   0.242
11498WAT     H148445   2.941   1.770   0.212
11498WAT     H248446   3.090   1.753   0.192
11499WAT      O48447   4.643   4.788   3.881
11499WAT     H148448   4.712   4.810   3.819
11499WAT     H248449   4.639   4.863   3.940
11500WAT      O48450   2.249   6.058  11.297
11500WAT     H148451   2.341   6.084  11.301
11500WAT     H248452   2.245   5.977  11.349
11501WAT      O48453   1.793   0.330   0.700
11501WAT     H148454   1.808   0.351   0.608
11501WAT     H248455   1.786   0.415   0.744
11502WAT      O48456   6.125   2.715   8.019
11502WAT     H148457   6.134   2.736   7.926
11502WAT     H248458   6.213   2.691   8.047
11503WAT      O48459   3.863   0.039   9.031
11503WAT     H148460   3.925   0.031   8.959
11503WAT     H248461   3.915   0.077   9.102
11504WAT      O48462   3.182   4.802  11.307
11504WAT     H148463   3.253   4.846  11.352
11504WAT     H248464   3.188   4.831  11.216
11505WAT      O48465   0.912   2.650   1.734
11505WAT     H148466   0.986   2.601   1.700
11505WAT     H248467   0.852   2.584   1.769
11506WAT      O48468   2.655   5.893   3.019
11506WAT     H148469   2.585   5.918   2.958
11506WAT     H248470   2.660   5.967   3.080
11507WAT      O48471   2.413   0.954  12.659
11507WAT     H148472   2.319   0.973  12.659
11507WAT     H248473   2.452   1.026  12.709
11508WAT      O48474   2.559   0.828  10.081
11508WAT     H148475   2.650   0.821  10.054
11508WAT     H248476   2.562   0.870  10.167
11509WAT      O48477   3.065   2.026   9.112
11509WAT     H148478   3.038   2.056   9.025
11509WAT     H248479   3.107   1.941   9.096
11510WAT      O48480   1.103   1.027   0.594
11510WAT     H148481   1.052   1.101   0.562
11510WAT     H248482   1.192   1.061   0.602
11511WAT      O48483   6.176   4.127  11.994
11511WAT     H148484   6.090   4.162  12.017
11511WAT     H248485   6.209   4.091  12.076
11512WAT      O48486   5.235   1.626   8.722
11512WAT     H148487   5.160   1.658   8.772
11512WAT     H248488   5.199   1.559   8.665
11513WAT      O48489   4.517   1.712   1.611
11513WAT     H148490   4.578   1.732   1.682
11513WAT     H248491   4.571   1.664   1.547
11514WAT      O48492   4.497   2.796   9.497
11514WAT     H148493   4.449   2.763   9.572
11514WAT     H248494   4.505   2.890   9.513
11515WAT      O48495   5.464   3.040  12.317
11515WAT     H148496   5.488   2.948  12.302
11515WAT     H248497   5.537   3.090  12.280
11516WAT      O48498   3.774   5.285  10.230
11516WAT     H148499   3.686   5.265  10.198
11516WAT     H248500   3.790   5.375  10.201
11517WAT      O48501   0.341   3.499   3.149
11517WAT     H148502   0.379   3.419   3.112
11517WAT     H248503   0.363   3.567   3.085
11518WAT      O48504   0.069   1.877   0.965
11518WAT     H148505  -0.004   1.819   0.945
11518WAT     H248506   0.055   1.953   0.909
11519WAT      O48507   3.079   3.580   0.634
11519WAT     H148508   3.087   3.672   0.660
11519WAT     H248509   3.016   3.581   0.561
11520WAT      O48510   4.219   4.011  11.882
11520WAT     H148511   4.207   4.032  11.975
11520WAT     H248512   4.300   3.961  11.880
11521WAT      O48513   1.000   3.684  11.894
11521WAT     H148514   1.014   3.761  11.949
11521WAT     H248515   0.971   3.719  11.810
11522WAT      O48516   2.349   0.333   9.682
11522WAT     H148517   2.281   0.338   9.750
11522WAT     H248518   2.305   0.296   9.606
11523WAT      O48519   2.327   4.026   1.385
11523WAT     H148520   2.311   3.936   1.358
11523WAT     H248521   2.264   4.078   1.335
11524WAT      O48522   1.821   4.255  11.674
11524WAT     H148523   1.807   4.305  11.594
11524WAT     H248524   1.825   4.321  11.744
11525WAT      O48525   3.365   0.055   9.982
11525WAT     H148526   3.360  -0.039   9.964
11525WAT     H248527   3.330   0.064  10.071
11526WAT      O48528   0.944   3.357  10.904
11526WAT     H148529   0.968   3.443  10.940
11526WAT     H248530   0.992   3.352  10.821
11527WAT      O48531   2.028   4.106   1.553
11527WAT     H148532   2.006   4.128   1.462
11527WAT     H248533   1.975   4.030   1.573
11528WAT      O48534   0.753   4.656   9.362
11528WAT     H148535   0.727   4.748   9.355
11528WAT     H248536   0.737   4.621   9.274
11529WAT      O48537   1.127   3.070   2.887
11529WAT     H148538   1.186   2.996   2.871
11529WAT     H248539   1.134   3.087   2.981
11530WAT      O48540   5.439   2.884   0.093
11530WAT     H148541   5.440   2.880  -0.003
11530WAT     H248542   5.473   2.972   0.113
11531WAT      O48543   1.860   3.691  10.336
11531WAT     H148544   1.870   3.665  10.427
11531WAT     H248545   1.853   3.786  10.338
11532WAT      O48546   0.957   4.340  11.537
11532WAT     H148547   0.990   4.412  11.590
11532WAT     H248548   0.970   4.369  11.447
11533WAT      O48549   2.171   0.703  10.605
11533WAT     H148550   2.111   0.776  10.620
11533WAT     H248551   2.126   0.626  10.639
11534WAT      O48552   3.355   5.678   4.267
11534WAT     H148553   3.300   5.646   4.196
11534WAT     H248554   3.371   5.600   4.322
11535WAT      O48555   1.785   0.659   1.096
11535WAT     H148556   1.787   0.593   1.166
11535WAT     H248557   1.694   0.660   1.067
11536WAT      O48558   2.601   0.267  10.554
11536WAT     H148559   2.616   0.180  10.589
11536WAT     H248560   2.685   0.292  10.514
11537WAT      O48561   1.276   5.771   3.523
11537WAT     H148562   1.268   5.732   3.436
11537WAT     H248563   1.187   5.802   3.544
11538WAT      O48564   2.438   3.432   1.012
11538WAT     H148565   2.343   3.442   1.010
11538WAT     H248566   2.459   3.380   0.934
11539WAT      O48567   2.073   1.388  12.376
11539WAT     H148568   2.071   1.483  12.366
11539WAT     H248569   2.166   1.367  12.389
11540WAT      O48570   1.828   4.405  11.431
11540WAT     H148571   1.803   4.497  11.427
11540WAT     H248572   1.779   4.364  11.359
11541WAT      O48573   2.351   0.082  10.599
11541WAT     H148574   2.343   0.130  10.681
11541WAT     H248575   2.283   0.119  10.543
11542WAT      O48576   2.780   4.330   0.411
11542WAT     H148577   2.807   4.359   0.324
11542WAT     H248578   2.685   4.341   0.413
11543WAT      O48579   3.299   6.048   4.352
11543WAT     H148580   3.217   6.090   4.378
11543WAT     H248581   3.325   5.997   4.428
11544WAT      O48582   3.074   2.211   9.296
11544WAT     H148583   2.981   2.207   9.317
11544WAT     H248584   3.086   2.143   9.229
11545WAT      O48585   1.037   2.508  12.368
11545WAT     H148586   1.089   2.473  12.296
11545WAT     H248587   1.100   2.524  12.438
11546WAT      O48588   5.613   0.070   2.041
11546WAT     H148589   5.519   0.075   2.058
11546WAT     H248590   5.652   0.057   2.127
11547WAT      O48591   2.865   1.644  10.068
11547WAT     H148592   2.957   1.659  10.091
11547WAT     H248593   2.833   1.729  10.039
11548WAT      O48594   3.390   4.346   0.630
11548WAT     H148595   3.399   4.254   0.655
11548WAT     H248596   3.328   4.381   0.694
11549WAT      O48597   2.774   3.117   9.340
11549WAT     H148598   2.857   3.148   9.304
11549WAT     H248599   2.728   3.078   9.266
11550WAT      O48600   5.936   3.882   1.739
11550WAT     H148601   5.919   3.905   1.831
11550WAT     H248602   5.915   3.789   1.733
11551WAT      O48603   3.488   2.652   2.003
11551WAT     H148604   3.530   2.661   2.089
11551WAT     H248605   3.398   2.626   2.024
11552WAT      O48606   3.908   5.525  11.070
11552WAT     H148607   3.875   5.537  10.981
11552WAT     H248608   3.992   5.479  11.059
11553WAT      O48609   5.598   0.920   8.600
11553WAT     H148610   5.647   0.914   8.518
11553WAT     H248611   5.573   0.830   8.620
11554WAT      O48612   5.576   2.553   3.416
11554WAT     H148613   5.620   2.569   3.332
11554WAT     H248614   5.491   2.517   3.392
11555WAT      O48615   4.272   6.119  11.599
11555WAT     H148616   4.218   6.148  11.673
11555WAT     H248617   4.236   6.034  11.575
11556WAT      O48618   1.203   1.727   2.262
11556WAT     H148619   1.235   1.647   2.221
11556WAT     H248620   1.153   1.697   2.337
11557WAT      O48621   5.600   4.041   3.120
11557WAT     H148622   5.628   4.055   3.211
11557WAT     H248623   5.663   3.977   3.086
11558WAT      O48624   3.587   3.818   1.529
11558WAT     H148625   3.532   3.740   1.529
11558WAT     H248626   3.525   3.891   1.536
11559WAT      O48627   2.533   3.127  12.260
11559WAT     H148628   2.618   3.151  12.223
11559WAT     H248629   2.489   3.078  12.190
11560WAT      O48630   5.219   0.234   8.413
11560WAT     H148631   5.149   0.294   8.386
11560WAT     H248632   5.175   0.170   8.469
11561WAT      O48633   6.204   5.732  10.370
11561WAT     H148634   6.299   5.734  10.358
11561WAT     H248635   6.182   5.639  10.367
11562WAT      O48636   0.770   0.266   8.220
11562WAT     H148637   0.755   0.210   8.144
11562WAT     H248638   0.684   0.300   8.243
11563WAT      O48639   3.731   4.777  10.677
11563WAT     H148640   3.748   4.848  10.739
11563WAT     H248641   3.645   4.744  10.701
11564WAT      O48642   5.703   4.665   0.919
11564WAT     H148643   5.682   4.606   0.991
11564WAT     H248644   5.651   4.743   0.936
11565WAT      O48645   2.387   3.041  11.683
11565WAT     H148646   2.328   3.035  11.758
11565WAT     H248647   2.331   3.062  11.609
11566WAT      O48648   5.092   0.025   1.287
11566WAT     H148649   5.029  -0.012   1.225
11566WAT     H248650   5.096   0.118   1.264
11567WAT      O48651   1.162   1.109  11.425
11567WAT     H148652   1.219   1.082  11.497
11567WAT     H248653   1.092   1.159  11.468
11568WAT      O48654   0.241   2.312   3.731
11568WAT     H148655   0.185   2.285   3.658
11568WAT     H248656   0.244   2.237   3.789
11569WAT      O48657   5.746   1.263  10.801
11569WAT     H148658   5.769   1.182  10.755
11569WAT     H248659   5.795   1.259  10.883
11570WAT      O48660   3.084   1.788   8.605
11570WAT     H148661   3.129   1.711   8.639
11570WAT     H248662   3.120   1.861   8.654
11571WAT      O48663   0.824   3.199   1.105
11571WAT     H148664   0.742   3.184   1.058
11571WAT     H248665   0.811   3.157   1.190
11572WAT      O48666   4.652   0.867   3.470
11572WAT     H148667   4.592   0.825   3.532
11572WAT     H248668   4.643   0.961   3.489
11573WAT      O48669   2.081   5.657   2.161
11573WAT     H148670   2.026   5.613   2.225
11573WAT     H248671   2.019   5.702   2.104
11574WAT      O48672   0.829   3.309  11.348
11574WAT     H148673   0.872   3.373  11.292
11574WAT     H248674   0.888   3.298  11.423
11575WAT      O48675   4.357   2.581   8.614
11575WAT     H148676   4.272   2.599   8.573
11575WAT     H248677   4.345   2.604   8.706
11576WAT      O48678   5.343   3.873  12.551
11576WAT     H148679   5.407   3.858  12.482
11576WAT     H248680   5.357   3.964  12.578
11577WAT      O48681   0.687   5.506   9.288
11577WAT     H148682   0.616   5.496   9.225
11577WAT     H248683   0.751   5.440   9.263
11578WAT      O48684   4.900   3.226  10.471
11578WAT     H148685   4.992   3.250  10.482
11578WAT     H248686   4.896   3.134  10.495
11579WAT      O48687   0.701   2.849   3.936
11579WAT     H148688   0.670   2.931   3.975
11579WAT     H248689   0.771   2.819   3.994
11580WAT      O48690   2.238   5.370   0.885
11580WAT     H148691   2.233   5.318   0.965
11580WAT     H248692   2.249   5.306   0.815
11581WAT      O48693   5.121   1.057   2.580
11581WAT     H148694   5.202   1.058   2.630
11581WAT     H248695   5.068   0.989   2.622
11582WAT      O48696   3.301   5.032   3.413
11582WAT     H148697   3.298   5.128   3.420
11582WAT     H248698   3.284   5.001   3.502
11583WAT      O48699   2.161   5.527  10.579
11583WAT     H148700   2.127   5.476  10.505
11583WAT     H248701   2.248   5.489  10.596
11584WAT      O48702   1.702   2.335  10.158
11584WAT     H148703   1.752   2.328  10.077
11584WAT     H248704   1.752   2.282  10.221
11585WAT      O48705   3.850   2.140  11.806
11585WAT     H148706   3.842   2.081  11.880
11585WAT     H248707   3.854   2.227  11.845
11586WAT      O48708   4.475   4.391   2.429
11586WAT     H148709   4.532   4.467   2.443
11586WAT     H248710   4.534   4.321   2.400
11587WAT      O48711   3.862   2.544   8.926
11587WAT     H148712   3.804   2.468   8.932
11587WAT     H248713   3.820   2.602   8.862
11588WAT      O48714   5.252   5.329   1.750
11588WAT     H148715   5.219   5.411   1.786
11588WAT     H248716   5.228   5.263   1.815
11589WAT      O48717   5.769   0.377   0.721
11589WAT     H148718   5.853   0.419   0.742
11589WAT     H248719   5.754   0.400   0.629
11590WAT      O48720   5.765   4.738   8.715
11590WAT     H148721   5.810   4.821   8.727
11590WAT     H248722   5.690   4.759   8.660
11591WAT      O48723   0.503   1.704   4.652
11591WAT     H148724   0.574   1.689   4.714
11591WAT     H248725   0.463   1.617   4.640
11592WAT      O48726   0.670   5.767  12.229
11592WAT     H148727   0.726   5.766  12.306
11592WAT     H248728   0.592   5.816  12.257
11593WAT      O48729   2.145   3.675  12.245
11593WAT     H148730   2.072   3.692  12.185
11593WAT     H248731   2.219   3.724  12.207
11594WAT      O48732   6.243   2.309   0.111
11594WAT     H148733   6.152   2.328   0.085
11594WAT     H248734   6.271   2.386   0.161
11595WAT      O48735   1.323   0.669  10.337
11595WAT     H148736   1.229   0.653  10.341
11595WAT     H248737   1.352   0.618  10.261
11596WAT      O48738   1.499   5.594   4.019
11596WAT     H148739   1.495   5.504   4.052
11596WAT     H248740   1.588   5.622   4.037
11597WAT      O48741   0.829   4.366   0.638
11597WAT     H148742   0.778   4.414   0.573
11597WAT     H248743   0.780   4.285   0.652
11598WAT      O48744   4.444   5.132   2.474
11598WAT     H148745   4.351   5.151   2.470
11598WAT     H248746   4.450   5.045   2.514
11599WAT      O48747   2.499   5.713   2.668
11599WAT     H148748   2.440   5.671   2.606
11599WAT     H248749   2.563   5.759   2.614
11600WAT      O48750   1.382   0.962   4.045
11600WAT     H148751   1.346   0.952   3.957
11600WAT     H248752   1.436   0.884   4.058
11601WAT      O48753   5.053   2.852   9.005
11601WAT     H148754   5.033   2.942   8.979
11601WAT     H248755   4.968   2.813   9.022
11602WAT      O48756   4.108   4.868   1.395
11602WAT     H148757   4.066   4.863   1.481
11602WAT     H248758   4.124   4.776   1.371
11603WAT      O48759   4.458   1.399   1.445
11603WAT     H148760   4.387   1.462   1.431
11603WAT     H248761   4.472   1.398   1.540
11604WAT      O48762   5.084   5.291   9.187
11604WAT     H148763   5.057   5.374   9.147
11604WAT     H248764   5.017   5.273   9.252
11605WAT      O48765   1.417   4.152   0.765
11605WAT     H148766   1.447   4.185   0.680
11605WAT     H248767   1.465   4.206   0.829
11606WAT      O48768   6.122   2.067   8.139
11606WAT     H148769   6.164   2.065   8.053
11606WAT     H248770   6.035   2.031   8.124
11607WAT      O48771   5.719   3.061  11.055
11607WAT     H148772   5.693   3.131  10.996
11607WAT     H248773   5.642   3.005  11.061
11608WAT      O48774   3.652   1.781  11.916
11608WAT     H148775   3.703   1.773  11.836
11608WAT     H248776   3.626   1.691  11.938
11609WAT      O48777   0.583   3.558   0.298
11609WAT     H148778   0.536   3.475   0.304
11609WAT     H248779   0.661   3.546   0.352
11610WAT      O48780   3.606   5.887  11.954
11610WAT     H148781   3.581   5.831  12.027
11610WAT     H248782   3.576   5.840  11.876
11611WAT      O48783   3.775   0.078   8.139
11611WAT     H148784   3.867   0.104   8.151
11611WAT     H248785   3.737   0.149   8.087
11612WAT      O48786   5.841   4.184   1.610
11612WAT     H148787   5.745   4.190   1.608
11612WAT     H248788   5.870   4.236   1.537
11613WAT      O48789   0.196   5.071   8.674
11613WAT     H148790   0.287   5.102   8.673
11613WAT     H248791   0.144   5.151   8.679
11614WAT      O48792   2.173   1.773  10.114
11614WAT     H148793   2.225   1.727  10.048
11614WAT     H248794   2.217   1.754  10.197
11615WAT      O48795   5.122   3.501   1.940
11615WAT     H148796   5.066   3.575   1.918
11615WAT     H248797   5.061   3.430   1.959
11616WAT      O48798   2.831   4.350  10.041
11616WAT     H148799   2.888   4.406   9.988
11616WAT     H248800   2.888   4.281  10.074
11617WAT      O48801   0.411   2.736   0.888
11617WAT     H148802   0.374   2.649   0.899
11617WAT     H248803   0.490   2.735   0.942
11618WAT      O48804   0.503   2.121   3.190
11618WAT     H148805   0.430   2.066   3.219
11618WAT     H248806   0.470   2.163   3.110
11619WAT      O48807   1.168   0.258   4.263
11619WAT     H148808   1.198   0.170   4.285
11619WAT     H248809   1.074   0.249   4.248
11620WAT      O48810   1.892   4.945   1.770
11620WAT     H148811   1.860   4.930   1.681
11620WAT     H248812   1.813   4.960   1.821
11621WAT      O48813   3.251   5.113  11.121
11621WAT     H148814   3.268   5.201  11.087
11621WAT     H248815   3.282   5.116  11.212
11622WAT      O48816   5.214   3.481   3.607
11622WAT     H148817   5.220   3.397   3.562
11622WAT     H248818   5.165   3.463   3.687
11623WAT      O48819   1.794   3.644  11.865
11623WAT     H148820   1.742   3.687  11.797
11623WAT     H248821   1.800   3.553  11.838
11624WAT      O48822   5.646   4.896   3.305
11624WAT     H148823   5.652   4.977   3.355
11624WAT     H248824   5.555   4.867   3.317
11625WAT      O48825   4.038   1.292   1.247
11625WAT     H148826   3.956   1.340   1.255
11625WAT     H248827   4.064   1.272   1.337
11626WAT      O48828   4.826   4.790   9.054
11626WAT     H148829   4.899   4.791   9.117
11626WAT     H248830   4.832   4.704   9.013
11627WAT      O48831   3.926   2.470  11.839
11627WAT     H148832   4.010   2.429  11.859
11627WAT     H248833   3.936   2.561  11.866
11628WAT      O48834   2.836   5.197  10.823
11628WAT     H148835   2.743   5.176  10.830
11628WAT     H248836   2.849   5.216  10.731
11629WAT      O48837   1.582   5.182  10.316
11629WAT     H148838   1.548   5.271  10.304
11629WAT     H248839   1.664   5.194  10.364
11630WAT      O48840   4.652   3.366  11.193
11630WAT     H148841   4.596   3.372  11.271
11630WAT     H248842   4.609   3.422  11.129
11631WAT      O48843   2.198   4.090   3.922
11631WAT     H148844   2.123   4.089   3.982
11631WAT     H248845   2.176   4.155   3.856
11632WAT      O48846   5.742   4.006  12.241
11632WAT     H148847   5.696   4.023  12.159
11632WAT     H248848   5.804   3.937  12.220
11633WAT      O48849   3.937   1.269   4.239
11633WAT     H148850   3.904   1.193   4.189
11633WAT     H248851   3.872   1.282   4.308
11634WAT      O48852   3.223   0.273  11.678
11634WAT     H148853   3.225   0.365  11.706
11634WAT     H248854   3.272   0.271  11.596
11635WAT      O48855   5.548   2.215  11.298
11635WAT     H148856   5.613   2.183  11.236
11635WAT     H248857   5.547   2.310  11.284
11636WAT      O48858   3.626   6.135  10.104
11636WAT     H148859   3.714   6.106  10.082
11636WAT     H248860   3.620   6.224  10.070
11637WAT      O48861   6.181   6.033  11.546
11637WAT     H148862   6.157   5.979  11.471
11637WAT     H248863   6.191   5.971  11.618
11638WAT      O48864   4.534   3.513   3.260
11638WAT     H148865   4.621   3.474   3.255
11638WAT     H248866   4.539   3.590   3.204
11639WAT      O48867   2.774   1.566   4.351
11639WAT     H148868   2.702   1.503   4.360
11639WAT     H248869   2.752   1.637   4.411
11640WAT      O48870   1.787   0.189   3.455
11640WAT     H148871   1.740   0.211   3.535
11640WAT     H248872   1.742   0.239   3.387
11641WAT      O48873   4.396   4.075  10.206
11641WAT     H148874   4.436   4.068  10.293
11641WAT     H248875   4.438   4.006  10.155
11642WAT      O48876   6.077   0.717   8.795
11642WAT     H148877   6.084   0.715   8.699
11642WAT     H248878   6.068   0.809   8.817
11643WAT      O48879   5.956   2.567   3.604
11643WAT     H148880   5.872   2.613   3.612
11643WAT     H248881   6.014   2.615   3.663
11644WAT      O48882   0.730   1.009  10.541
11644WAT     H148883   0.738   0.957  10.620
11644WAT     H248884   0.654   1.064  10.556
11645WAT      O48885   4.720   5.349   1.377
11645WAT     H148886   4.663   5.388   1.444
11645WAT     H248887   4.758   5.273   1.420
11646WAT      O48888   1.764   1.411   0.467
11646WAT     H148889   1.802   1.451   0.545
11646WAT     H248890   1.743   1.486   0.410
11647WAT      O48891   3.371   2.246   1.821
11647WAT     H148892   3.374   2.316   1.886
11647WAT     H248893   3.281   2.213   1.825
11648WAT      O48894   4.759   0.187   2.347
11648WAT     H148895   4.745   0.282   2.353
11648WAT     H248896   4.842   0.172   2.391
11649WAT      O48897   0.109   0.395   0.075
11649WAT     H148898   0.158   0.333   0.129
11649WAT     H248899   0.154   0.479   0.089
11650WAT      O48900   4.999   4.711  10.628
11650WAT     H148901   5.071   4.666  10.672
11650WAT     H248902   4.934   4.642  10.612
11651WAT      O48903   4.490   4.005   3.949
11651WAT     H148904   4.484   4.092   3.990
11651WAT     H248905   4.481   3.944   4.022
11652WAT      O48906   5.422   3.112   9.190
11652WAT     H148907   5.492   3.135   9.130
11652WAT     H248908   5.378   3.037   9.150
11653WAT      O48909   0.815   0.591  11.275
11653WAT     H148910   0.731   0.546  11.278
11653WAT     H248911   0.818   0.642  11.356
11654WAT      O48912   4.254   2.008   3.248
11654WAT     H148913   4.225   1.989   3.159
11654WAT     H248914   4.330   2.064   3.237
11655WAT      O48915   3.820   2.215   0.418
11655WAT     H148916   3.865   2.252   0.342
11655WAT     H248917   3.852   2.267   0.492
11656WAT      O48918   3.362   6.126  11.541
11656WAT     H148919   3.382   6.161  11.627
11656WAT     H248920   3.429   6.059  11.525
11657WAT      O48921   4.704   2.624  10.586
11657WAT     H148922   4.775   2.602  10.647
11657WAT     H248923   4.634   2.563  10.610
11658WAT      O48924   2.934   5.422   9.460
11658WAT     H148925   3.005   5.420   9.397
11658WAT     H248926   2.964   5.482   9.528
11659WAT      O48927   1.900   5.646   3.025
11659WAT     H148928   1.870   5.627   2.936
11659WAT     H248929   1.993   5.625   3.024
11660WAT      O48930   1.820   1.666  11.591
11660WAT     H148931   1.847   1.638  11.503
11660WAT     H248932   1.802   1.584  11.637
11661WAT      O48933   1.915   0.755   1.410
11661WAT     H148934   1.992   0.699   1.403
11661WAT     H248935   1.854   0.706   1.465
11662WAT      O48936   4.312   0.836   3.600
11662WAT     H148937   4.381   0.824   3.665
11662WAT     H248938   4.232   0.809   3.645
11663WAT      O48939   2.519   5.942   4.742
11663WAT     H148940   2.602   5.979   4.772
11663WAT     H248941   2.512   5.858   4.789
11664WAT      O48942   1.062   2.448   0.259
11664WAT     H148943   1.051   2.503   0.181
11664WAT     H248944   1.072   2.359   0.225
11665WAT      O48945   3.931   4.996   1.631
11665WAT     H148946   3.836   4.997   1.643
11665WAT     H248947   3.966   5.021   1.717
11666WAT      O48948   6.194   4.284   9.932
11666WAT     H148949   6.287   4.293   9.909
11666WAT     H248950   6.158   4.372   9.921
11667WAT      O48951   0.779   5.500   5.095
11667WAT     H148952   0.783   5.416   5.050
11667WAT     H248953   0.688   5.527   5.089
11668WAT      O48954   1.749   1.199   8.605
11668WAT     H148955   1.743   1.293   8.585
11668WAT     H248956   1.816   1.194   8.673
11669WAT      O48957   4.248   0.007   0.603
11669WAT     H148958   4.290   0.094   0.605
11669WAT     H248959   4.180   0.012   0.669
11670WAT      O48960   2.872   4.955   9.097
11670WAT     H148961   2.798   4.926   9.148
11670WAT     H248962   2.939   4.979   9.161
11671WAT      O48963   6.189   1.337   0.774
11671WAT     H148964   6.148   1.266   0.823
11671WAT     H248965   6.115   1.384   0.734
11672WAT      O48966   2.291   2.704   0.120
11672WAT     H148967   2.277   2.795   0.093
11672WAT     H248968   2.366   2.708   0.179
11673WAT      O48969   2.069   4.710   9.591
11673WAT     H148970   1.980   4.688   9.621
11673WAT     H248971   2.119   4.629   9.603
11674WAT      O48972   2.177   6.045   7.899
11674WAT     H148973   2.154   6.134   7.874
11674WAT     H248974   2.265   6.032   7.863
11675WAT      O48975   2.950   4.818   0.050
11675WAT     H148976   2.982   4.874   0.121
11675WAT     H248977   2.902   4.877  -0.008
11676WAT      O48978   5.274   3.514  12.496
11676WAT     H148979   5.281   3.436  12.441
11676WAT     H248980   5.205   3.566  12.456
11677WAT      O48981   2.684   0.831   4.190
11677WAT     H148982   2.761   0.817   4.135
11677WAT     H248983   2.657   0.743   4.215
11678WAT      O48984   5.259   1.485  12.167
11678WAT     H148985   5.315   1.471  12.243
11678WAT     H248986   5.181   1.433  12.185
11679WAT      O48987   2.203   5.047  10.675
11679WAT     H148988   2.210   5.078  10.585
11679WAT     H248989   2.267   4.975  10.681
11680WAT      O48990   1.477   0.763  10.932
11680WAT     H148991   1.395   0.794  10.970
11680WAT     H248992   1.541   0.774  11.002
11681WAT      O48993   4.879   0.463   4.417
11681WAT     H148994   4.941   0.525   4.379
11681WAT     H248995   4.795   0.486   4.377
11682WAT      O48996   4.455   0.175   0.891
11682WAT     H148997   4.547   0.196   0.871
11682WAT     H248998   4.406   0.213   0.818
11683WAT      O48999   0.842   2.090   1.870
11683WAT     H149000   0.864   2.092   1.963
11683WAT     H249001   0.925   2.103   1.825
11684WAT      O49002   2.935   5.232  12.222
11684WAT     H149003   2.912   5.219  12.130
11684WAT     H249004   2.858   5.275  12.260
11685WAT      O49005   0.283   1.385   9.574
11685WAT     H149006   0.206   1.428   9.613
11685WAT     H249007   0.321   1.334   9.645
11686WAT      O49008   0.893   4.322   0.341
11686WAT     H149009   0.952   4.273   0.284
11686WAT     H249010   0.819   4.264   0.355
11687WAT      O49011   6.205   1.047  11.522
11687WAT     H149012   6.220   1.091  11.605
11687WAT     H249013   6.233   0.957  11.537
11688WAT      O49014   0.627   4.671   8.545
11688WAT     H149015   0.627   4.638   8.635
11688WAT     H249016   0.603   4.596   8.492
11689WAT      O49017   4.727   4.256   4.010
11689WAT     H149018   4.714   4.341   3.967
11689WAT     H249019   4.641   4.233   4.045
11690WAT      O49020   1.988   0.887   3.409
11690WAT     H149021   1.922   0.819   3.423
11690WAT     H249022   1.993   0.896   3.313
11691WAT      O49023   0.544   5.044  10.000
11691WAT     H149024   0.540   5.139  10.008
11691WAT     H249025   0.455   5.017   9.980
11692WAT      O49026   0.987   5.711   8.226
11692WAT     H149027   1.059   5.708   8.162
11692WAT     H249028   0.908   5.694   8.173
11693WAT      O49029   0.856   0.682   3.116
11693WAT     H149030   0.768   0.684   3.152
11693WAT     H249031   0.908   0.732   3.178
11694WAT      O49032   1.194   4.187   1.279
11694WAT     H149033   1.127   4.137   1.325
11694WAT     H249034   1.265   4.195   1.343
11695WAT      O49035   1.838   0.772   3.960
11695WAT     H149036   1.881   0.747   3.878
11695WAT     H249037   1.879   0.855   3.984
11696WAT      O49038   1.850   3.880  11.169
11696WAT     H149039   1.809   3.814  11.113
11696WAT     H249040   1.802   3.961  11.150
11697WAT      O49041   6.148   3.422   9.717
11697WAT     H149042   6.182   3.484   9.651
11697WAT     H249043   6.059   3.452   9.735
11698WAT      O49044   1.960   3.981  12.461
11698WAT     H149045   1.885   4.003  12.406
11698WAT     H249046   2.034   4.025  12.419
11699WAT      O49047   3.318   1.319   9.584
11699WAT     H149048   3.364   1.323   9.667
11699WAT     H249049   3.321   1.226   9.560
11700WAT      O49050   4.096   0.957   8.124
11700WAT     H149051   4.125   0.867   8.112
11700WAT     H249052   4.111   0.999   8.040
11701WAT      O49053   5.560   2.499   2.148
11701WAT     H149054   5.487   2.483   2.209
11701WAT     H249055   5.519   2.507   2.062
11702WAT      O49056   1.752   0.943  10.072
11702WAT     H149057   1.667   0.914  10.039
11702WAT     H249058   1.757   1.035  10.048
11703WAT      O49059   4.944   3.239   3.689
11703WAT     H149060   4.854   3.270   3.698
11703WAT     H249061   4.995   3.295   3.748
11704WAT      O49062   1.736   5.453  10.183
11704WAT     H149063   1.764   5.541  10.158
11704WAT     H249064   1.640   5.457  10.183
11705WAT      O49065   3.105   3.379   1.197
11705WAT     H149066   3.063   3.346   1.117
11705WAT     H249067   3.038   3.369   1.265
11706WAT      O49068   3.200   4.965   4.522
11706WAT     H149069   3.178   4.982   4.614
11706WAT     H249070   3.223   5.050   4.486
11707WAT      O49071   5.866   3.022   8.017
11707WAT     H149072   5.879   2.927   8.010
11707WAT     H249073   5.779   3.032   8.056
11708WAT      O49074   0.238   1.844   3.867
11708WAT     H149075   0.158   1.795   3.847
11708WAT     H249076   0.289   1.840   3.786
11709WAT      O49077   3.160   6.028   2.214
11709WAT     H149078   3.086   6.079   2.183
11709WAT     H249079   3.142   6.014   2.307
11710WAT      O49080   3.223   4.405  11.915
11710WAT     H149081   3.143   4.357  11.895
11710WAT     H249082   3.197   4.497  11.913
11711WAT      O49083   2.657   3.331  11.251
11711WAT     H149084   2.686   3.389  11.321
11711WAT     H249085   2.698   3.247  11.272
11712WAT      O49086   5.908   4.099   2.654
11712WAT     H149087   5.857   4.180   2.650
11712WAT     H249088   5.992   4.121   2.615
11713WAT      O49089   2.641   0.929   9.035
11713WAT     H149090   2.685   0.959   9.115
11713WAT     H249091   2.571   0.993   9.021
11714WAT      O49092   5.866   1.950   1.364
11714WAT     H149093   5.852   1.917   1.275
11714WAT     H249094   5.845   2.043   1.358
11715WAT      O49095   3.958   2.945   2.264
11715WAT     H149096   4.022   3.016   2.256
11715WAT     H249097   3.882   2.977   2.215
11716WAT      O49098   0.492   5.481   1.477
11716WAT     H149099   0.456   5.538   1.544
11716WAT     H249100   0.586   5.495   1.480
11717WAT      O49101   0.968   5.325   9.476
11717WAT     H149102   0.926   5.243   9.503
11717WAT     H249103   0.912   5.359   9.406
11718WAT      O49104   1.551   3.562   1.956
11718WAT     H149105   1.478   3.565   2.018
11718WAT     H249106   1.629   3.564   2.012
11719WAT      O49107   0.974   1.304   0.578
11719WAT     H149108   1.025   1.312   0.659
11719WAT     H249109   1.040   1.296   0.509
11720WAT      O49110   4.022   2.038  11.423
11720WAT     H149111   3.928   2.022  11.427
11720WAT     H249112   4.043   2.039  11.330
11721WAT      O49113   5.176   2.604   8.496
11721WAT     H149114   5.100   2.618   8.552
11721WAT     H249115   5.250   2.600   8.556
11722WAT      O49116   4.103   6.160  12.140
11722WAT     H149117   4.053   6.238  12.116
11722WAT     H249118   4.066   6.131  12.223
11723WAT      O49119   5.841   1.748   7.337
11723WAT     H149120   5.844   1.660   7.301
11723WAT     H249121   5.754   1.755   7.376
11724WAT      O49122   3.408   3.929   0.247
11724WAT     H149123   3.430   3.836   0.258
11724WAT     H249124   3.422   3.947   0.154
11725WAT      O49125   0.760   1.424   2.730
11725WAT     H149126   0.714   1.341   2.733
11725WAT     H249127   0.750   1.461   2.818
11726WAT      O49128   4.009   5.255   2.140
11726WAT     H149129   3.956   5.268   2.061
11726WAT     H249130   4.047   5.167   2.129
11727WAT      O49131   3.698   6.185   3.030
11727WAT     H149132   3.749   6.261   3.002
11727WAT     H249133   3.757   6.137   3.088
11728WAT      O49134   3.358   3.657   0.480
11728WAT     H149135   3.392   3.745   0.495
11728WAT     H249136   3.319   3.632   0.564
11729WAT      O49137   6.220   0.738   0.377
11729WAT     H149138   6.303   0.773   0.345
11729WAT     H249139   6.184   0.809   0.431
11730WAT      O49140   3.924   0.686   8.685
11730WAT     H149141   3.839   0.659   8.720
11730WAT     H249142   3.955   0.610   8.635
11731WAT      O49143   2.654   1.734   0.351
11731WAT     H149144   2.715   1.759   0.420
11731WAT     H249145   2.574   1.708   0.397
11732WAT      O49146   2.863   1.797   0.577
11732WAT     H149147   2.917   1.820   0.652
11732WAT     H249148   2.882   1.866   0.512
11733WAT      O49149   1.344   2.265   3.765
11733WAT     H149150   1.354   2.360   3.761
11733WAT     H249151   1.257   2.249   3.727
11734WAT      O49152   1.330   3.268  11.278
11734WAT     H149153   1.275   3.200  11.239
11734WAT     H249154   1.418   3.249  11.247
11735WAT      O49155   1.171   2.194   2.479
11735WAT     H149156   1.080   2.188   2.452
11735WAT     H249157   1.168   2.187   2.575
11736WAT      O49158   1.913   4.394   9.699
11736WAT     H149159   1.886   4.411   9.789
11736WAT     H249160   1.978   4.462   9.680
11737WAT      O49161   0.928   5.564   1.986
11737WAT     H149162   0.973   5.600   1.909
11737WAT     H249163   0.915   5.472   1.964
11738WAT      O49164   1.010   5.474   0.449
11738WAT     H149165   1.085   5.418   0.470
11738WAT     H249166   1.005   5.536   0.522
11739WAT      O49167   1.008   6.125   9.809
11739WAT     H149168   1.016   6.221   9.813
11739WAT     H249169   0.920   6.109   9.776
11740WAT      O49170   2.780   5.150   2.423
11740WAT     H149171   2.717   5.091   2.381
11740WAT     H249172   2.866   5.118   2.396
11741WAT      O49173   1.333   1.933   4.652
11741WAT     H149174   1.256   1.901   4.605
11741WAT     H249175   1.396   1.861   4.646
11742WAT      O49176   4.893   3.198   3.124
11742WAT     H149177   4.905   3.291   3.141
11742WAT     H249178   4.802   3.191   3.095
11743WAT      O49179   5.155   4.615  11.404
11743WAT     H149180   5.077   4.611  11.460
11743WAT     H249181   5.208   4.685  11.442
11744WAT      O49182   0.344   0.820   1.475
11744WAT     H149183   0.318   0.749   1.415
11744WAT     H249184   0.287   0.808   1.551
11745WAT      O49185   1.641   0.300   0.457
11745WAT     H149186   1.549   0.304   0.482
11745WAT     H249187   1.674   0.221   0.500
11746WAT      O49188   4.638   6.179   1.095
11746WAT     H149189   4.644   6.273   1.079
11746WAT     H249190   4.604   6.171   1.184
11747WAT      O49191   3.477   3.257   2.969
11747WAT     H149192   3.521   3.286   2.889
11747WAT     H249193   3.532   3.186   3.002
11748WAT      O49194   3.824   1.283   8.638
11748WAT     H149195   3.814   1.190   8.657
11748WAT     H249196   3.770   1.298   8.561
11749WAT      O49197   2.058   5.698  10.387
11749WAT     H149198   2.025   5.611  10.408
11749WAT     H249199   2.153   5.686  10.377
11750WAT      O49200   4.617   0.713   8.936
11750WAT     H149201   4.628   0.724   9.031
11750WAT     H249202   4.555   0.781   8.911
11751WAT      O49203   1.230   4.434  11.347
11751WAT     H149204   1.212   4.471  11.434
11751WAT     H249205   1.296   4.492  11.309
11752WAT      O49206   1.195   0.295   7.907
11752WAT     H149207   1.116   0.246   7.931
11752WAT     H249208   1.163   0.377   7.871
11753WAT      O49209   3.595   3.684   0.258
11753WAT     H149210   3.543   3.604   0.269
11753WAT     H249211   3.684   3.653   0.241
11754WAT      O49212   3.740   3.821   9.781
11754WAT     H149213   3.664   3.822   9.723
11754WAT     H249214   3.710   3.776   9.860
11755WAT      O49215   2.151   2.504   9.592
11755WAT     H149216   2.185   2.533   9.507
11755WAT     H249217   2.099   2.426   9.572
11756WAT      O49218   1.049   2.624   2.278
11756WAT     H149219   1.045   2.602   2.184
11756WAT     H249220   1.010   2.711   2.284
11757WAT      O49221   1.039   4.087   2.233
11757WAT     H149222   1.120   4.107   2.281
11757WAT     H249223   1.057   4.005   2.188
11758WAT      O49224   4.097   1.798   0.468
11758WAT     H149225   4.042   1.797   0.547
11758WAT     H249226   4.150   1.877   0.478
11759WAT      O49227   6.055   1.828   1.948
11759WAT     H149228   6.023   1.816   2.037
11759WAT     H249229   6.108   1.907   1.951
11760WAT      O49230   5.183   0.930  11.267
11760WAT     H149231   5.231   1.012  11.277
11760WAT     H249232   5.091   0.955  11.269
11761WAT      O49233   1.235   6.163  10.492
11761WAT     H149234   1.318   6.132  10.529
11761WAT     H249235   1.201   6.087  10.444
11762WAT      O49236   0.497   0.052   9.754
11762WAT     H149237   0.416   0.007   9.729
11762WAT     H249238   0.487   0.140   9.718
11763WAT      O49239   5.194   3.707   0.353
11763WAT     H149240   5.213   3.713   0.260
11763WAT     H249241   5.273   3.669   0.392
11764WAT      O49242   0.462   1.114   1.652
11764WAT     H149243   0.384   1.170   1.649
11764WAT     H249244   0.494   1.112   1.562
11765WAT      O49245   5.249   4.166   0.184
11765WAT     H149246   5.244   4.261   0.184
11765WAT     H249247   5.161   4.137   0.158
11766WAT      O49248   5.431   1.243   1.034
11766WAT     H149249   5.473   1.328   1.048
11766WAT     H249250   5.503   1.184   1.012
11767WAT      O49251   0.296   1.102   3.908
11767WAT     H149252   0.218   1.114   3.961
11767WAT     H249253   0.288   1.014   3.871
11768WAT      O49254   1.470   2.122   9.937
11768WAT     H149255   1.381   2.086   9.932
11768WAT     H249256   1.503   2.092  10.022
11769WAT      O49257   6.004   5.524   0.843
11769WAT     H149258   6.020   5.554   0.932
11769WAT     H249259   5.983   5.603   0.793
11770WAT      O49260   4.099   1.113  10.214
11770WAT     H149261   4.073   1.021  10.222
11770WAT     H249262   4.038   1.161  10.269
11771WAT      O49263   4.720   2.762  10.285
11771WAT     H149264   4.630   2.796  10.276
11771WAT     H249265   4.710   2.667  10.280
11772WAT      O49266   1.297   1.854  10.417
11772WAT     H149267   1.346   1.871  10.497
11772WAT     H249268   1.364   1.842  10.350
11773WAT      O49269   4.624   2.637   0.733
11773WAT     H149270   4.537   2.633   0.693
11773WAT     H249271   4.671   2.701   0.681
11774WAT      O49272   3.518   4.439   3.277
11774WAT     H149273   3.522   4.531   3.253
11774WAT     H249274   3.441   4.405   3.231
11775WAT      O49275   5.843   3.222  12.230
11775WAT     H149276   5.783   3.295  12.210
11775WAT     H249277   5.812   3.189  12.314
11776WAT      O49278   4.888   2.050   2.377
11776WAT     H149279   4.882   1.986   2.448
11776WAT     H249280   4.890   1.998   2.297
11777WAT      O49281   2.811   2.331   9.045
11777WAT     H149282   2.811   2.290   9.132
11777WAT     H249283   2.867   2.408   9.056
11778WAT      O49284   0.026   2.106   9.908
11778WAT     H149285   0.065   2.037   9.855
11778WAT     H249286   0.097   2.138   9.964
11779WAT      O49287   1.977   0.738   9.685
11779WAT     H149288   1.896   0.699   9.654
11779WAT     H249289   1.961   0.757   9.778
11780WAT      O49290   2.462   3.374   9.574
11780WAT     H149291   2.473   3.402   9.664
11780WAT     H249292   2.551   3.353   9.544
11781WAT      O49293   4.768   5.232   7.654
11781WAT     H149294   4.800   5.142   7.664
11781WAT     H249295   4.682   5.232   7.697
11782WAT      O49296   6.156   6.170  11.208
11782WAT     H149297   6.218   6.111  11.251
11782WAT     H249298   6.209   6.220  11.147
11783WAT      O49299   1.119   4.981   1.500
11783WAT     H149300   1.092   4.898   1.539
11783WAT     H249301   1.040   5.013   1.456
11784WAT      O49302   1.881   1.758  10.728
11784WAT     H149303   1.888   1.838  10.780
11784WAT     H249304   1.817   1.779  10.660
11785WAT      O49305   0.251   3.206   4.612
11785WAT     H149306   0.268   3.259   4.534
11785WAT     H249307   0.193   3.136   4.582
11786WAT      O49308   3.929   3.943  12.512
11786WAT     H149309   3.911   3.976  12.600
11786WAT     H249310   3.852   3.890  12.490
11787WAT      O49311   3.857   0.360   8.576
11787WAT     H149312   3.901   0.342   8.659
11787WAT     H249313   3.782   0.415   8.600
11788WAT      O49314   0.326   5.055  11.474
11788WAT     H149315   0.421   5.041  11.472
11788WAT     H249316   0.307   5.097  11.390
11789WAT      O49317   2.979   2.628  11.357
11789WAT     H149318   2.967   2.633  11.262
11789WAT     H249319   2.909   2.683  11.393
11790WAT      O49320   0.748   3.936   8.064
11790WAT     H149321   0.794   3.919   7.982
11790WAT     H249322   0.727   4.029   8.060
11791WAT      O49323   4.797   2.380  11.686
11791WAT     H149324   4.757   2.404  11.770
11791WAT     H249325   4.885   2.351  11.709
11792WAT      O49326   4.039   0.501   3.477
11792WAT     H149327   4.054   0.431   3.541
11792WAT     H249328   3.994   0.458   3.405
11793WAT      O49329   3.910   0.893  11.154
11793WAT     H149330   3.816   0.904  11.166
11793WAT     H249331   3.919   0.842  11.073
11794WAT      O49332   3.888   2.405   2.940
11794WAT     H149333   3.910   2.336   3.002
11794WAT     H249334   3.918   2.486   2.982
11795WAT      O49335   1.472   6.023  11.026
11795WAT     H149336   1.431   6.090  10.972
11795WAT     H249337   1.490   5.951  10.966
11796WAT      O49338   0.507   5.466   8.880
11796WAT     H149339   0.541   5.536   8.936
11796WAT     H249340   0.454   5.412   8.939
11797WAT      O49341   4.070   2.436   7.532
11797WAT     H149342   4.035   2.524   7.542
11797WAT     H249343   4.153   2.437   7.580
11798WAT      O49344   4.640   5.028   9.682
11798WAT     H149345   4.654   4.933   9.676
11798WAT     H249346   4.708   5.058   9.742
11799WAT      O49347   3.935   6.010   9.287
11799WAT     H149348   3.860   6.066   9.270
11799WAT     H249349   3.975   6.046   9.366
11800WAT      O49350   0.781   0.180  10.380
11800WAT     H149351   0.692   0.208  10.362
11800WAT     H249352   0.787   0.093  10.342
11801WAT      O49353   5.099   4.241   1.292
11801WAT     H149354   5.079   4.235   1.385
11801WAT     H249355   5.080   4.332   1.269
11802WAT      O49356   2.900   0.316   9.626
11802WAT     H149357   2.889   0.382   9.558
11802WAT     H249358   2.849   0.241   9.596
11803WAT      O49359   0.981   0.326   8.432
11803WAT     H149360   0.964   0.335   8.338
11803WAT     H249361   1.051   0.388   8.450
11804WAT      O49362   0.024   4.292   3.407
11804WAT     H149363   0.017   4.381   3.440
11804WAT     H249364  -0.005   4.237   3.479
11805WAT      O49365   2.863   5.640  11.395
11805WAT     H149366   2.856   5.655  11.489
11805WAT     H249367   2.899   5.552  11.388
11806WAT      O49368   0.109   4.588   3.436
11806WAT     H149369   0.114   4.640   3.356
11806WAT     H249370   0.152   4.642   3.502
11807WAT      O49371   4.842   3.657   7.991
11807WAT     H149372   4.878   3.595   7.927
11807WAT     H249373   4.903   3.730   7.990
11808WAT      O49374   1.386   5.482   0.955
11808WAT     H149375   1.306   5.496   1.005
11808WAT     H249376   1.357   5.474   0.864
11809WAT      O49377   0.127   5.817   1.692
11809WAT     H149378   0.126   5.762   1.771
11809WAT     H249379   0.064   5.776   1.633
11810WAT      O49380   2.282   3.608   1.574
11810WAT     H149381   2.292   3.563   1.658
11810WAT     H249382   2.353   3.672   1.572
11811WAT      O49383   2.387   5.474   1.376
11811WAT     H149384   2.316   5.536   1.363
11811WAT     H249385   2.346   5.388   1.366
11812WAT      O49386   3.375   3.227   0.706
11812WAT     H149387   3.319   3.297   0.739
11812WAT     H249388   3.417   3.264   0.629
11813WAT      O49389   2.507   2.356   4.202
11813WAT     H149390   2.434   2.309   4.242
11813WAT     H249391   2.556   2.393   4.275
11814WAT      O49392   0.353   3.799   9.909
11814WAT     H149393   0.384   3.727   9.854
11814WAT     H249394   0.387   3.878   9.867
11815WAT      O49395   4.373   4.656   1.863
11815WAT     H149396   4.402   4.744   1.838
11815WAT     H249397   4.424   4.636   1.941
11816WAT      O49398   6.120   5.858  11.354
11816WAT     H149399   6.083   5.770  11.361
11816WAT     H249400   6.108   5.882  11.262
11817WAT      O49401   4.789   3.369  10.233
11817WAT     H149402   4.847   3.389  10.159
11817WAT     H249403   4.845   3.322  10.294
11818WAT      O49404   5.394   3.079   2.618
11818WAT     H149405   5.313   3.124   2.640
11818WAT     H249406   5.385   3.057   2.526
11819WAT      O49407   1.551   4.817   7.483
11819WAT     H149408   1.505   4.886   7.533
11819WAT     H249409   1.616   4.783   7.544
11820WAT      O49410   0.607   2.336  10.355
11820WAT     H149411   0.592   2.288  10.273
11820WAT     H249412   0.686   2.296  10.392
11821WAT      O49413   1.079   4.000   2.944
11821WAT     H149414   1.106   4.018   3.034
11821WAT     H249415   1.032   4.078   2.916
11822WAT      O49416   2.950   2.668  10.191
11822WAT     H149417   3.044   2.687  10.197
11822WAT     H249418   2.911   2.715  10.265
11823WAT      O49419   2.287   2.079  10.799
11823WAT     H149420   2.343   2.156  10.797
11823WAT     H249421   2.341   2.008  10.764
11824WAT      O49422   4.729   5.292   2.992
11824WAT     H149423   4.824   5.283   2.982
11824WAT     H249424   4.693   5.235   2.924
11825WAT      O49425   4.207   5.538  11.305
11825WAT     H149426   4.212   5.508  11.214
11825WAT     H249427   4.131   5.492  11.342
11826WAT      O49428   5.617   3.183   2.367
11826WAT     H149429   5.570   3.107   2.332
11826WAT     H249430   5.708   3.170   2.338
11827WAT      O49431   4.995   0.488   8.044
11827WAT     H149432   5.060   0.487   7.974
11827WAT     H249433   4.955   0.575   8.038
11828WAT      O49434   0.345   5.574   2.855
11828WAT     H149435   0.402   5.557   2.779
11828WAT     H249436   0.258   5.587   2.818
11829WAT      O49437   4.064   4.685   8.171
11829WAT     H149438   4.092   4.743   8.241
11829WAT     H249439   4.122   4.706   8.098
11830WAT      O49440   5.861   0.499   4.406
11830WAT     H149441   5.902   0.448   4.475
11830WAT     H249442   5.924   0.568   4.386
11831WAT      O49443   4.610   2.175   9.678
11831WAT     H149444   4.667   2.231   9.731
11831WAT     H249445   4.532   2.161   9.732
11832WAT      O49446   0.054   3.687   9.320
11832WAT     H149447  -0.025   3.741   9.315
11832WAT     H249448   0.022   3.598   9.334
11833WAT      O49449   2.752   2.702   1.825
11833WAT     H149450   2.678   2.655   1.786
11833WAT     H249451   2.740   2.691   1.919
11834WAT      O49452   4.626   2.071  11.079
11834WAT     H149453   4.639   2.142  11.142
11834WAT     H249454   4.688   2.003  11.106
11835WAT      O49455   3.349   5.813  12.343
11835WAT     H149456   3.397   5.855  12.414
11835WAT     H249457   3.406   5.823  12.267
11836WAT      O49458   2.164   4.422   2.716
11836WAT     H149459   2.125   4.391   2.634
11836WAT     H249460   2.215   4.347   2.748
11837WAT      O49461   5.317   3.236   3.928
11837WAT     H149462   5.407   3.235   3.895
11837WAT     H249463   5.319   3.180   4.005
11838WAT      O49464   1.671   2.294   2.783
11838WAT     H149465   1.615   2.354   2.831
11838WAT     H249466   1.676   2.331   2.694
11839WAT      O49467   4.705   1.162   7.762
11839WAT     H149468   4.777   1.178   7.701
11839WAT     H249469   4.668   1.248   7.779
11840WAT      O49470   4.710   5.809   0.349
11840WAT     H149471   4.670   5.727   0.322
11840WAT     H249472   4.768   5.832   0.276
11841WAT      O49473   1.423   1.362   2.458
11841WAT     H149474   1.431   1.445   2.504
11841WAT     H249475   1.466   1.298   2.515
11842WAT      O49476   3.328   1.168  10.128
11842WAT     H149477   3.262   1.184  10.060
11842WAT     H249478   3.317   1.241  10.189
11843WAT      O49479   0.133   5.362   8.107
11843WAT     H149480   0.150   5.319   8.024
11843WAT     H249481   0.125   5.455   8.085
11844WAT      O49482   0.892   5.271   1.165
11844WAT     H149483   0.851   5.214   1.230
11844WAT     H249484   0.819   5.305   1.113
11845WAT      O49485   1.849   4.531  10.075
11845WAT     H149486   1.890   4.612  10.106
11845WAT     H249487   1.851   4.472  10.150
11846WAT      O49488   3.093   5.001   9.287
11846WAT     H149489   3.158   4.946   9.330
11846WAT     H249490   3.031   5.023   9.356
11847WAT      O49491   1.043   5.839   1.066
11847WAT     H149492   1.124   5.815   1.111
11847WAT     H249493   1.051   5.933   1.050
11848WAT      O49494   1.790   6.112   1.149
11848WAT     H149495   1.722   6.150   1.204
11848WAT     H249496   1.764   6.021   1.137
11849WAT      O49497   4.708   3.622   8.459
11849WAT     H149498   4.633   3.624   8.520
11849WAT     H249499   4.745   3.710   8.465
11850WAT      O49500   5.701   4.427  11.522
11850WAT     H149501   5.732   4.502  11.471
11850WAT     H249502   5.632   4.463  11.578
11851WAT      O49503   0.524   1.570   1.221
11851WAT     H149504   0.533   1.541   1.130
11851WAT     H249505   0.461   1.642   1.217
11852WAT      O49506   5.449   5.806   1.284
11852WAT     H149507   5.515   5.875   1.279
11852WAT     H249508   5.372   5.849   1.321
11853WAT      O49509   6.010   1.929   1.084
11853WAT     H149510   5.965   1.915   1.002
11853WAT     H249511   6.043   1.843   1.109
11854WAT      O49512   0.319   2.204   0.733
11854WAT     H149513   0.368   2.194   0.651
11854WAT     H249514   0.379   2.247   0.793
11855WAT      O49515   1.442   2.797   2.121
11855WAT     H149516   1.532   2.804   2.153
11855WAT     H249517   1.408   2.886   2.124
11856WAT      O49518   2.178   5.104  10.365
11856WAT     H149519   2.264   5.067  10.346
11856WAT     H249520   2.116   5.042  10.327
11857WAT      O49521   2.965   2.792  10.884
11857WAT     H149522   2.939   2.866  10.828
11857WAT     H249523   2.993   2.724  10.822
11858WAT      O49524   6.134   0.137   9.510
11858WAT     H149525   6.153   0.125   9.603
11858WAT     H249526   6.087   0.058   9.485
11859WAT      O49527   0.014   4.958   1.351
11859WAT     H149528  -0.042   5.011   1.408
11859WAT     H249529   0.072   4.911   1.411
11860WAT      O49530   4.741   3.079   2.515
11860WAT     H149531   4.683   3.024   2.463
11860WAT     H249532   4.686   3.113   2.586
11861WAT      O49533   4.502   5.930   9.126
11861WAT     H149534   4.570   5.907   9.062
11861WAT     H249535   4.549   5.933   9.210
11862WAT      O49536   0.269   1.696   9.253
11862WAT     H149537   0.240   1.617   9.209
11862WAT     H249538   0.340   1.730   9.198
11863WAT      O49539   2.801   5.154   0.878
11863WAT     H149540   2.887   5.119   0.900
11863WAT     H249541   2.820   5.237   0.834
11864WAT      O49542   1.115   0.907   1.515
11864WAT     H149543   1.200   0.900   1.472
11864WAT     H249544   1.093   0.817   1.541
11865WAT      O49545   2.321   4.035   0.494
11865WAT     H149546   2.391   4.069   0.439
11865WAT     H249547   2.358   3.956   0.534
11866WAT      O49548   1.620   5.766  10.940
11866WAT     H149549   1.567   5.692  10.969
11866WAT     H249550   1.689   5.727  10.886
11867WAT      O49551   2.838   0.410  10.739
11867WAT     H149552   2.876   0.373  10.659
11867WAT     H249553   2.870   0.353  10.809
11868WAT      O49554   4.931   3.624   1.654
11868WAT     H149555   4.995   3.562   1.618
11868WAT     H249556   4.851   3.608   1.604
11869WAT      O49557   1.868   6.059   1.789
11869WAT     H149558   1.803   6.124   1.763
11869WAT     H249559   1.882   6.006   1.711
11870WAT      O49560   0.266   0.343   2.635
11870WAT     H149561   0.211   0.287   2.582
11870WAT     H249562   0.320   0.391   2.572
11871WAT      O49563   5.719   0.100   1.402
11871WAT     H149564   5.652   0.089   1.335
11871WAT     H249565   5.785   0.156   1.361
11872WAT      O49566   4.837   1.797   0.876
11872WAT     H149567   4.863   1.800   0.968
11872WAT     H249568   4.771   1.727   0.872
11873WAT      O49569   4.804   0.131   9.280
11873WAT     H149570   4.774   0.212   9.320
11873WAT     H249571   4.892   0.118   9.315
11874WAT      O49572   1.783   0.738   2.408
11874WAT     H149573   1.729   0.809   2.373
11874WAT     H249574   1.770   0.666   2.347
11875WAT      O49575   0.524   4.322   3.259
11875WAT     H149576   0.467   4.364   3.195
11875WAT     H249577   0.466   4.299   3.332
11876WAT      O49578   2.952   4.106  10.836
11876WAT     H149579   2.881   4.054  10.874
11876WAT     H249580   2.956   4.079  10.745
11877WAT      O49581   0.469   5.586   2.595
11877WAT     H149582   0.538   5.539   2.642
11877WAT     H249583   0.503   5.596   2.506
11878WAT      O49584   2.278   0.488   1.829
11878WAT     H149585   2.371   0.464   1.833
11878WAT     H249586   2.250   0.491   1.920
11879WAT      O49587   2.389   3.923   1.117
11879WAT     H149588   2.294   3.916   1.124
11879WAT     H249589   2.421   3.835   1.135
11880WAT      O49590   2.187   0.373   8.969
11880WAT     H149591   2.099   0.357   9.003
11880WAT     H249592   2.243   0.379   9.046
11881WAT      O49593   5.085   2.231   3.513
11881WAT     H149594   5.094   2.140   3.542
11881WAT     H249595   5.161   2.246   3.455
11882WAT      O49596   6.251   1.955  11.670
11882WAT     H149597   6.187   2.010  11.716
11882WAT     H249598   6.197   1.896  11.616
11883WAT      O49599   4.033   0.840   0.742
11883WAT     H149600   4.085   0.878   0.813
11883WAT     H249601   3.966   0.789   0.787
11884WAT      O49602   0.995   2.632   3.281
11884WAT     H149603   1.039   2.668   3.204
11884WAT     H249604   1.012   2.696   3.350
11885WAT      O49605   2.675   1.957   8.925
11885WAT     H149606   2.753   1.904   8.908
11885WAT     H249607   2.618   1.901   8.977
11886WAT      O49608   3.744   3.907   1.722
11886WAT     H149609   3.691   3.949   1.790
11886WAT     H249610   3.683   3.852   1.674
11887WAT      O49611   3.753   5.696   0.465
11887WAT     H149612   3.786   5.610   0.490
11887WAT     H249613   3.775   5.704   0.372
11888WAT      O49614   0.461   4.466   0.772
11888WAT     H149615   0.528   4.458   0.840
11888WAT     H249616   0.508   4.453   0.690
11889WAT      O49617   3.856   4.219  10.657
11889WAT     H149618   3.777   4.213  10.712
11889WAT     H249619   3.852   4.307  10.619
11890WAT      O49620   2.854   2.648  12.265
11890WAT     H149621   2.822   2.675  12.179
11890WAT     H249622   2.898   2.564  12.249
11891WAT      O49623   4.080   4.066   2.073
11891WAT     H149624   4.118   4.065   1.985
11891WAT     H249625   4.109   4.148   2.112
11892WAT      O49626   2.434   5.560   2.911
11892WAT     H149627   2.385   5.632   2.949
11892WAT     H249628   2.464   5.593   2.826
11893WAT      O49629   5.350   3.188   3.202
11893WAT     H149630   5.263   3.177   3.241
11893WAT     H249631   5.400   3.233   3.269
11894WAT      O49632   1.915   3.548  10.597
11894WAT     H149633   1.828   3.509  10.592
11894WAT     H249634   1.964   3.490  10.656
11895WAT      O49635   1.707   0.930   7.826
11895WAT     H149636   1.661   1.014   7.832
11895WAT     H249637   1.792   0.951   7.789
11896WAT      O49638   4.382   5.982   1.422
11896WAT     H149639   4.364   6.021   1.507
11896WAT     H249640   4.318   6.021   1.363
11897WAT      O49641   2.425   4.896  12.347
11897WAT     H149642   2.331   4.882  12.336
11897WAT     H249643   2.464   4.870  12.263
11898WAT      O49644   2.116   4.961   8.838
11898WAT     H149645   2.119   5.057   8.848
11898WAT     H249646   2.036   4.935   8.884
11899WAT      O49647   4.237   4.703  10.596
11899WAT     H149648   4.229   4.687  10.690
11899WAT     H249649   4.148   4.720  10.567
11900WAT      O49650   6.160   6.218   9.232
11900WAT     H149651   6.176   6.148   9.295
11900WAT     H249652   6.246   6.236   9.194
11901WAT      O49653   0.168   2.214   2.366
11901WAT     H149654   0.077   2.186   2.355
11901WAT     H249655   0.204   2.154   2.430
11902WAT      O49656   3.172   4.667  11.546
11902WAT     H149657   3.106   4.708  11.602
11902WAT     H249658   3.185   4.730  11.475
11903WAT      O49659   3.314   1.616   0.941
11903WAT     H149660   3.397   1.646   0.906
11903WAT     H249661   3.300   1.530   0.899
11904WAT      O49662   4.228   4.122   8.135
11904WAT     H149663   4.277   4.043   8.157
11904WAT     H249664   4.158   4.092   8.077
11905WAT      O49665   5.320   1.057   0.268
11905WAT     H149666   5.340   1.144   0.301
11905WAT     H249667   5.404   1.023   0.237
11906WAT      O49668   1.242   0.549  11.236
11906WAT     H149669   1.224   0.500  11.156
11906WAT     H249670   1.336   0.569  11.230
11907WAT      O49671   5.507   4.349   0.620
11907WAT     H149672   5.522   4.272   0.675
11907WAT     H249673   5.420   4.380   0.645
11908WAT      O49674   4.779   2.288   8.771
11908WAT     H149675   4.766   2.236   8.851
11908WAT     H249676   4.705   2.263   8.716
11909WAT      O49677   5.488   3.078   8.040
11909WAT     H149678   5.436   3.002   8.014
11909WAT     H249679   5.446   3.153   7.998
11910WAT      O49680   4.503   2.037   1.164
11910WAT     H149681   4.432   2.009   1.107
11910WAT     H249682   4.525   2.125   1.133
11911WAT      O49683   4.539   1.610   2.859
11911WAT     H149684   4.472   1.654   2.912
11911WAT     H249685   4.621   1.628   2.903
11912WAT      O49686   3.432   2.642  11.648
11912WAT     H149687   3.336   2.641  11.647
11912WAT     H249688   3.457   2.563  11.600
11913WAT      O49689   6.218   5.319   8.927
11913WAT     H149690   6.145   5.310   8.865
11913WAT     H249691   6.295   5.330   8.872
11914WAT      O49692   2.222   0.157   9.473
11914WAT     H149693   2.169   0.235   9.486
11914WAT     H249694   2.232   0.150   9.378
11915WAT      O49695   0.283   5.060  12.360
11915WAT     H149696   0.334   5.006  12.299
11915WAT     H249697   0.302   5.150  12.333
11916WAT      O49698   1.553   6.112   8.641
11916WAT     H149699   1.554   6.157   8.726
11916WAT     H249700   1.535   6.020   8.663
11917WAT      O49701   0.507   3.844   0.236
11917WAT     H149702   0.572   3.847   0.166
11917WAT     H249703   0.526   3.764   0.284
11918WAT      O49704   4.764   0.626  11.963
11918WAT     H149705   4.741   0.615  11.871
11918WAT     H249706   4.785   0.537  11.993
11919WAT      O49707   5.167   5.086   0.659
11919WAT     H149708   5.246   5.043   0.626
11919WAT     H249709   5.197   5.136   0.735
11920WAT      O49710   2.383   0.078   4.475
11920WAT     H149711   2.305   0.125   4.506
11920WAT     H249712   2.351  -0.010   4.455
11921WAT      O49713   2.967   3.821  12.026
11921WAT     H149714   2.894   3.768  12.056
11921WAT     H249715   2.932   3.910  12.019
11922WAT      O49716   1.243   2.501   2.623
11922WAT     H149717   1.281   2.588   2.610
11922WAT     H249718   1.218   2.472   2.535
11923WAT      O49719   0.273   4.165  10.297
11923WAT     H149720   0.229   4.241  10.335
11923WAT     H249721   0.271   4.099  10.367
11924WAT      O49722   2.376   4.382   8.868
11924WAT     H149723   2.468   4.391   8.844
11924WAT     H249724   2.343   4.472   8.867
11925WAT      O49725   5.941   2.193   2.564
11925WAT     H149726   5.963   2.269   2.616
11925WAT     H249727   6.016   2.134   2.574
11926WAT      O49728   4.592   3.885   8.799
11926WAT     H149729   4.592   3.955   8.734
11926WAT     H249730   4.580   3.805   8.748
11927WAT      O49731   5.879   3.459   3.431
11927WAT     H149732   5.877   3.555   3.436
11927WAT     H249733   5.872   3.440   3.338
11928WAT      O49734   0.968   5.453  11.937
11928WAT     H149735   0.888   5.505  11.942
11928WAT     H249736   0.985   5.444  11.844
11929WAT      O49737   0.469   1.673   3.554
11929WAT     H149738   0.429   1.617   3.621
11929WAT     H249739   0.522   1.735   3.604
11930WAT      O49740   0.981   0.923   9.512
11930WAT     H149741   0.985   0.905   9.419
11930WAT     H249742   1.061   0.973   9.531
11931WAT      O49743   2.032   1.786   8.072
11931WAT     H149744   2.112   1.773   8.021
11931WAT     H249745   1.964   1.802   8.006
11932WAT      O49746   0.971   4.495   2.563
11932WAT     H149747   0.982   4.555   2.490
11932WAT     H249748   0.890   4.447   2.543
11933WAT      O49749   2.063   1.092   2.161
11933WAT     H149750   2.084   1.075   2.069
11933WAT     H249751   2.033   1.008   2.195
11934WAT      O49752   3.605   0.735   0.697
11934WAT     H149753   3.592   0.640   0.693
11934WAT     H249754   3.588   0.765   0.608
11935WAT      O49755   6.191   2.032   2.075
11935WAT     H149756   6.269   1.979   2.092
11935WAT     H249757   6.207   2.071   1.989
11936WAT      O49758   6.265   0.088  10.173
11936WAT     H149759   6.212   0.013  10.146
11936WAT     H249760   6.209   0.137  10.233
11937WAT      O49761   2.129   1.014  12.542
11937WAT     H149762   2.046   1.025  12.494
11937WAT     H249763   2.121   0.928  12.584
11938WAT      O49764   2.041   2.953  10.248
11938WAT     H149765   2.102   2.971  10.176
11938WAT     H249766   2.073   3.006  10.321
11939WAT      O49767   0.502   5.319   2.222
11939WAT     H149768   0.429   5.329   2.283
11939WAT     H249769   0.579   5.347   2.271
11940WAT      O49770   0.203   4.538   8.042
11940WAT     H149771   0.268   4.528   8.112
11940WAT     H249772   0.139   4.469   8.058
11941WAT      O49773   5.848   3.521  10.253
11941WAT     H149774   5.833   3.430  10.227
11941WAT     H249775   5.761   3.561  10.251
11942WAT      O49776   2.897   3.009   8.704
11942WAT     H149777   2.865   3.099   8.698
11942WAT     H249778   2.891   2.987   8.797
11943WAT      O49779   1.441   2.971   3.557
11943WAT     H149780   1.371   2.937   3.501
11943WAT     H249781   1.495   2.894   3.576
11944WAT      O49782   5.750   1.535   1.171
11944WAT     H149783   5.731   1.475   1.243
11944WAT     H249784   5.664   1.569   1.145
11945WAT      O49785   5.953   3.822   3.238
11945WAT     H149786   6.035   3.776   3.221
11945WAT     H249787   5.926   3.791   3.325
11946WAT      O49788   5.126   3.527   9.851
11946WAT     H149789   5.140   3.621   9.851
11946WAT     H249790   5.203   3.491   9.895
11947WAT      O49791   0.525   2.578   7.939
11947WAT     H149792   0.465   2.509   7.910
11947WAT     H249793   0.542   2.558   8.031
11948WAT      O49794   4.759   6.033   1.398
11948WAT     H149795   4.724   5.982   1.471
11948WAT     H249796   4.854   6.030   1.411
11949WAT      O49797   4.311   5.760   8.011
11949WAT     H149798   4.368   5.683   8.007
11949WAT     H249799   4.236   5.732   8.064
11950WAT      O49800   0.935   2.875   2.296
11950WAT     H149801   0.922   2.870   2.201
11950WAT     H249802   0.913   2.966   2.318
11951WAT      O49803   3.022   5.519   0.579
11951WAT     H149804   2.982   5.606   0.589
11951WAT     H249805   3.106   5.526   0.623
11952WAT      O49806   2.618   5.989   3.670
11952WAT     H149807   2.602   5.915   3.729
11952WAT     H249808   2.668   6.051   3.722
11953WAT      O49809   5.019   2.859   3.521
11953WAT     H149810   4.986   2.907   3.445
11953WAT     H249811   5.103   2.822   3.491
11954WAT      O49812   5.359   5.369   8.406
11954WAT     H149813   5.395   5.361   8.494
11954WAT     H249814   5.402   5.446   8.369
11955WAT      O49815   2.037   0.828   7.921
11955WAT     H149816   2.045   0.755   7.860
11955WAT     H249817   2.004   0.901   7.867
11956WAT      O49818   2.816   0.245   0.226
11956WAT     H149819   2.875   0.215   0.294
11956WAT     H249820   2.874   0.273   0.154
11957WAT      O49821   5.316   0.505   4.111
11957WAT     H149822   5.226   0.538   4.108
11957WAT     H249823   5.312   0.430   4.170
11958WAT      O49824   5.464   4.240  12.221
11958WAT     H149825   5.403   4.312  12.203
11958WAT     H249826   5.527   4.278  12.282
11959WAT      O49827   1.458   3.721   8.502
11959WAT     H149828   1.501   3.752   8.422
11959WAT     H249829   1.365   3.723   8.481
11960WAT      O49830   0.205   2.824   3.266
11960WAT     H149831   0.145   2.879   3.215
11960WAT     H249832   0.160   2.740   3.275
11961WAT      O49833   2.625   3.916  11.789
11961WAT     H149834   2.597   4.006  11.775
11961WAT     H249835   2.552   3.863  11.755
11962WAT      O49836   0.083   0.241   7.923
11962WAT     H149837   0.026   0.311   7.892
11962WAT     H249838   0.087   0.253   8.018
11963WAT      O49839   0.496   5.226   1.820
11963WAT     H149840   0.538   5.166   1.881
11963WAT     H249841   0.404   5.199   1.819
11964WAT      O49842   5.281   5.330   3.806
11964WAT     H149843   5.298   5.236   3.814
11964WAT     H249844   5.212   5.348   3.869
11965WAT      O49845   2.454   1.401   8.242
11965WAT     H149846   2.413   1.359   8.318
11965WAT     H249847   2.381   1.430   8.188
11966WAT      O49848   4.650   5.901  11.008
11966WAT     H149849   4.667   5.844  10.932
11966WAT     H249850   4.640   5.840  11.081
11967WAT      O49851   2.123   4.619   3.222
11967WAT     H149852   2.185   4.555   3.258
11967WAT     H249853   2.127   4.693   3.281
11968WAT      O49854   3.150   3.288  10.923
11968WAT     H149855   3.122   3.339  10.999
11968WAT     H249856   3.238   3.259  10.944
11969WAT      O49857   6.137   2.799  10.396
11969WAT     H149858   6.194   2.747  10.453
11969WAT     H249859   6.191   2.818  10.319
11970WAT      O49860   4.896   1.414  12.511
11970WAT     H149861   4.922   1.344  12.451
11970WAT     H249862   4.853   1.479  12.456
11971WAT      O49863   1.931   1.941   1.501
11971WAT     H149864   1.915   1.981   1.416
11971WAT     H249865   1.921   2.012   1.564
11972WAT      O49866   2.304   5.233   8.323
11972WAT     H149867   2.294   5.328   8.324
11972WAT     H249868   2.279   5.206   8.235
11973WAT      O49869   2.277   0.838  12.360
11973WAT     H149870   2.218   0.903  12.399
11973WAT     H249871   2.362   0.882  12.354
11974WAT      O49872   2.763   4.070   2.786
11974WAT     H149873   2.848   4.105   2.757
11974WAT     H249874   2.785   3.990   2.834
11975WAT      O49875   2.265   1.821   9.077
11975WAT     H149876   2.246   1.899   9.026
11975WAT     H249877   2.182   1.798   9.119
11976WAT      O49878   2.970   1.164   0.473
11976WAT     H149879   2.948   1.216   0.550
11976WAT     H249880   2.976   1.227   0.402
11977WAT      O49881   2.038   5.121   8.005
11977WAT     H149882   2.040   5.172   8.086
11977WAT     H249883   2.108   5.159   7.951
11978WAT      O49884   3.118   0.197   3.319
11978WAT     H149885   3.066   0.277   3.330
11978WAT     H249886   3.154   0.180   3.406
11979WAT      O49887   3.522   6.214   3.740
11979WAT     H149888   3.468   6.277   3.788
11979WAT     H249889   3.572   6.169   3.809
11980WAT      O49890   0.867   5.594   4.813
11980WAT     H149891   0.812   5.555   4.745
11980WAT     H249892   0.819   5.579   4.894
11981WAT      O49893   6.004   0.377   9.478
11981WAT     H149894   5.919   0.333   9.488
11981WAT     H249895   6.068   0.306   9.480
11982WAT      O49896   0.318   4.115   0.188
11982WAT     H149897   0.296   4.023   0.177
11982WAT     H249898   0.399   4.127   0.138
11983WAT      O49899   2.236   2.009  11.364
11983WAT     H149900   2.305   1.954  11.402
11983WAT     H249901   2.283   2.069  11.306
11984WAT      O49902   5.865   5.994  11.805
11984WAT     H149903   5.957   6.019  11.818
11984WAT     H249904   5.840   5.951  11.887
11985WAT      O49905   3.234   1.362   0.484
11985WAT     H149906   3.230   1.437   0.423
11985WAT     H249907   3.211   1.399   0.569
11986WAT      O49908   4.555   3.826  10.585
11986WAT     H149909   4.582   3.845  10.495
11986WAT     H249910   4.472   3.779  10.576
11987WAT      O49911   5.093   3.856   8.939
11987WAT     H149912   5.089   3.942   8.898
11987WAT     H249913   5.097   3.794   8.866
11988WAT      O49914   4.289   4.747   4.190
11988WAT     H149915   4.342   4.779   4.117
11988WAT     H249916   4.225   4.816   4.206
11989WAT      O49917   0.737   1.951  10.056
11989WAT     H149918   0.797   1.878  10.041
11989WAT     H249919   0.651   1.910  10.064
11990WAT      O49920   0.137   2.015   9.458
11990WAT     H149921   0.054   2.047   9.494
11990WAT     H249922   0.139   1.922   9.482
11991WAT      O49923   0.683   5.473   2.387
11991WAT     H149924   0.741   5.406   2.423
11991WAT     H249925   0.740   5.530   2.336
11992WAT      O49926   3.233   2.677   0.525
11992WAT     H149927   3.193   2.648   0.442
11992WAT     H249928   3.326   2.688   0.505
11993WAT      O49929   3.002   4.174  12.007
11993WAT     H149930   2.919   4.128  12.001
11993WAT     H249931   3.035   4.155  12.095
11994WAT      O49932   3.249   3.104   3.031
11994WAT     H149933   3.174   3.158   3.006
11994WAT     H249934   3.325   3.151   2.996
11995WAT      O49935   3.664   2.897   8.531
11995WAT     H149936   3.590   2.858   8.484
11995WAT     H249937   3.649   2.992   8.526
11996WAT      O49938   3.837   4.277   0.052
11996WAT     H149939   3.879   4.192   0.057
11996WAT     H249940   3.765   4.273   0.115
11997WAT      O49941   4.915   1.003   7.932
11997WAT     H149942   4.963   0.950   7.869
11997WAT     H249943   4.829   1.018   7.892
11998WAT      O49944   1.433   3.921  10.950
11998WAT     H149945   1.469   3.883  11.030
11998WAT     H249946   1.481   3.877  10.879
11999WAT      O49947   3.878   0.918  11.465
11999WAT     H149948   3.910   0.875  11.386
11999WAT     H249949   3.821   0.988  11.433
12000WAT      O49950   0.794   1.874  12.335
12000WAT     H149951   0.783   1.955  12.286
12000WAT     H249952   0.816   1.902  12.424
12001WAT      O49953   3.879   0.660   9.486
12001WAT     H149954   3.787   0.671   9.461
12001WAT     H249955   3.885   0.704   9.571
12002WAT      O49956   1.606   5.603   0.397
12002WAT     H149957   1.545   5.620   0.469
12002WAT     H249958   1.617   5.508   0.398
12003WAT      O49959   0.917   2.458   3.527
12003WAT     H149960   0.917   2.514   3.604
12003WAT     H249961   0.959   2.510   3.459
12004WAT      O49962   4.423   2.199  12.272
12004WAT     H149963   4.387   2.114  12.248
12004WAT     H249964   4.504   2.206  12.221
12005WAT      O49965   1.880   1.167   4.792
12005WAT     H149966   1.801   1.220   4.784
12005WAT     H249967   1.850   1.082   4.824
12006WAT      O49968   0.527   5.845  11.489
12006WAT     H149969   0.495   5.830  11.400
12006WAT     H249970   0.455   5.889  11.533
12007WAT      O49971   5.332   4.576  10.494
12007WAT     H149972   5.282   4.618  10.425
12007WAT     H249973   5.386   4.512  10.449
12008WAT      O49974   1.997   4.363   0.362
12008WAT     H149975   1.922   4.418   0.337
12008WAT     H249976   2.017   4.314   0.283
12009WAT      O49977   4.257   1.603  11.083
12009WAT     H149978   4.290   1.634  11.167
12009WAT     H249979   4.163   1.592  11.098
12010WAT      O49980   4.684   0.027   1.645
12010WAT     H149981   4.775   0.036   1.616
12010WAT     H249982   4.666   0.110   1.691
12011WAT      O49983   5.428   4.054   9.442
12011WAT     H149984   5.347   4.072   9.490
12011WAT     H249985   5.425   4.113   9.367
12012WAT      O49986   2.671   0.737   1.848
12012WAT     H149987   2.633   0.704   1.930
12012WAT     H249988   2.735   0.803   1.876
12013WAT      O49989   5.815   3.813  12.553
12013WAT     H149990   5.786   3.890  12.603
12013WAT     H249991   5.816   3.742  12.617
12014WAT      O49992   5.732   6.069   2.637
12014WAT     H149993   5.722   6.024   2.552
12014WAT     H249994   5.670   6.141   2.633
12015WAT      O49995   3.284   1.215   3.275
12015WAT     H149996   3.245   1.230   3.189
12015WAT     H249997   3.243   1.280   3.332
12016WAT      O49998   0.133   4.648  11.694
12016WAT     H149999   0.078   4.683  11.625
12016WAT     H250000   0.215   4.698  11.689
12017WAT      O50001   3.522   0.580   1.268
12017WAT     H150002   3.573   0.660   1.255
12017WAT     H250003   3.527   0.564   1.363
12018WAT      O50004   1.409   5.792   5.292
12018WAT     H150005   1.496   5.829   5.309
12018WAT     H250006   1.394   5.810   5.199
12019WAT      O50007   4.492   1.065   9.357
12019WAT     H150008   4.487   0.984   9.306
12019WAT     H250009   4.433   1.051   9.431
12020WAT      O50010   1.458   4.026   1.740
12020WAT     H150011   1.371   4.060   1.722
12020WAT     H250012   1.443   3.942   1.783
12021WAT      O50013   5.847   0.257   3.210
12021WAT     H150014   5.782   0.293   3.149
12021WAT     H250015   5.929   0.258   3.160
12022WAT      O50016   6.211   0.996   1.566
12022WAT     H150017   6.236   0.911   1.530
12022WAT     H250018   6.271   1.010   1.640
12023WAT      O50019   1.421   4.523   9.375
12023WAT     H150020   1.443   4.507   9.466
12023WAT     H250021   1.328   4.545   9.376
12024WAT      O50022   5.334   0.781   4.359
12024WAT     H150023   5.327   0.807   4.451
12024WAT     H250024   5.401   0.712   4.359
12025WAT      O50025   4.608   2.225   0.272
12025WAT     H150026   4.533   2.263   0.226
12025WAT     H250027   4.571   2.193   0.355
12026WAT      O50028   0.290   3.258  10.648
12026WAT     H150029   0.236   3.336  10.662
12026WAT     H250030   0.361   3.287  10.592
12027WAT      O50031   4.590   4.134   9.922
12027WAT     H150032   4.517   4.190   9.894
12027WAT     H250033   4.642   4.189   9.981
12028WAT      O50034   5.288   2.674   0.204
12028WAT     H150035   5.272   2.766   0.184
12028WAT     H250036   5.342   2.677   0.284
12029WAT      O50037   5.497   0.735  11.730
12029WAT     H150038   5.554   0.810  11.711
12029WAT     H250039   5.422   0.773  11.775
12030WAT      O50040   5.461   2.588   0.932
12030WAT     H150041   5.537   2.640   0.960
12030WAT     H250042   5.495   2.499   0.922
12031WAT      O50043   3.003   3.459   9.438
12031WAT     H150044   2.911   3.441   9.459
12031WAT     H250045   3.002   3.547   9.399
12032WAT      O50046   2.530   4.059   0.930
12032WAT     H150047   2.460   4.109   0.888
12032WAT     H250048   2.488   4.017   1.005
12033WAT      O50049   0.907   5.946   2.966
12033WAT     H150050   0.988   5.897   2.948
12033WAT     H250051   0.855   5.937   2.886
12034WAT      O50052   2.135   2.341  12.512
12034WAT     H150053   2.052   2.359  12.557
12034WAT     H250054   2.115   2.353  12.419
12035WAT      O50055   5.938   1.073  11.502
12035WAT     H150056   6.024   1.043  11.472
12035WAT     H250057   5.918   1.017  11.577
12036WAT      O50058   3.060   5.712  10.665
12036WAT     H150059   3.037   5.753  10.748
12036WAT     H250060   3.040   5.779  10.599
12037WAT      O50061   2.033   3.670   0.687
12037WAT     H150062   1.976   3.724   0.633
12037WAT     H250063   2.042   3.588   0.639
12038WAT      O50064   1.830   2.030   0.503
12038WAT     H150065   1.835   2.114   0.550
12038WAT     H250066   1.737   2.015   0.490
12039WAT      O50067   3.328   3.544   8.745
12039WAT     H150068   3.403   3.531   8.803
12039WAT     H250069   3.339   3.478   8.676
12040WAT      O50070   6.176   1.103  10.450
12040WAT     H150071   6.231   1.123  10.374
12040WAT     H250072   6.133   1.186  10.471
12041WAT      O50073   5.503   1.265  12.267
12041WAT     H150074   5.427   1.211  12.291
12041WAT     H250075   5.514   1.325  12.341
12042WAT      O50076   4.410   3.553   4.422
12042WAT     H150077   4.348   3.485   4.449
12042WAT     H250078   4.484   3.505   4.384
12043WAT      O50079   2.282   2.554   2.850
12043WAT     H150080   2.202   2.592   2.888
12043WAT     H250081   2.319   2.501   2.921
12044WAT      O50082   2.922   5.844   8.347
12044WAT     H150083   2.877   5.760   8.363
12044WAT     H250084   3.008   5.818   8.313
12045WAT      O50085   5.911   5.762   9.003
12045WAT     H150086   5.977   5.715   8.951
12045WAT     H250087   5.902   5.710   9.083
12046WAT      O50088   4.928   0.769   8.144
12046WAT     H150089   4.857   0.766   8.208
12046WAT     H250090   4.921   0.856   8.104
12047WAT      O50091   5.670   3.490  10.678
12047WAT     H150092   5.626   3.559  10.728
12047WAT     H250093   5.739   3.458  10.736
12048WAT      O50094   4.528   3.194  12.026
12048WAT     H150095   4.575   3.274  12.051
12048WAT     H250096   4.470   3.176  12.100
12049WAT      O50097   3.851   3.839   3.148
12049WAT     H150098   3.895   3.765   3.106
12049WAT     H250099   3.908   3.861   3.222
12050WAT      O50100   1.590   1.481   4.491
12050WAT     H150101   1.645   1.543   4.537
12050WAT     H250102   1.512   1.473   4.546
12051WAT      O50103   5.504   4.220   8.757
12051WAT     H150104   5.444   4.229   8.831
12051WAT     H250105   5.523   4.126   8.754
12052WAT      O50106   3.673  -0.010   9.596
12052WAT     H150107   3.651   0.060   9.657
12052WAT     H250108   3.714   0.034   9.522
12053WAT      O50109   3.739   5.902   8.990
12053WAT     H150110   3.705   5.911   9.079
12053WAT     H250111   3.833   5.917   8.998
12054WAT      O50112   3.743   3.811   0.812
12054WAT     H150113   3.754   3.806   0.717
12054WAT     H250114   3.790   3.890   0.837
12055WAT      O50115   2.392   6.045  11.593
12055WAT     H150116   2.300   6.052  11.619
12055WAT     H250117   2.410   6.127  11.549
12056WAT      O50118   2.560   4.173   2.007
12056WAT     H150119   2.597   4.178   1.919
12056WAT     H250120   2.467   4.155   1.993
12057WAT      O50121   1.754   4.707  10.790
12057WAT     H150122   1.755   4.795  10.755
12057WAT     H250123   1.665   4.695  10.825
12058WAT      O50124   2.117   3.671   2.939
12058WAT     H150125   2.193   3.633   2.982
12058WAT     H250126   2.152   3.744   2.889
12059WAT      O50127   0.697   0.571   9.592
12059WAT     H150128   0.666   0.613   9.672
12059WAT     H250129   0.743   0.641   9.544
12060WAT      O50130   4.897   6.210   3.975
12060WAT     H150131   4.881   6.222   3.882
12060WAT     H250132   4.850   6.130   3.998
12061WAT      O50133   1.222   0.072   3.428
12061WAT     H150134   1.140   0.034   3.461
12061WAT     H250135   1.194   0.145   3.374
12062WAT      O50136   4.839   1.181   3.690
12062WAT     H150137   4.804   1.105   3.736
12062WAT     H250138   4.933   1.167   3.688
12063WAT      O50139   0.275   5.473   1.028
12063WAT     H150140   0.310   5.421   1.101
12063WAT     H250141   0.352   5.516   0.990
12064WAT      O50142   4.080   4.812   8.594
12064WAT     H150143   4.123   4.889   8.630
12064WAT     H250144   4.066   4.755   8.669
12065WAT      O50145   0.238   6.246   2.568
12065WAT     H150146   0.206   6.157   2.581
12065WAT     H250147   0.318   6.236   2.517
12066WAT      O50148   5.050   1.522   9.172
12066WAT     H150149   4.961   1.537   9.202
12066WAT     H250150   5.045   1.527   9.077
12067WAT      O50151   4.274   5.799   8.344
12067WAT     H150152   4.222   5.734   8.298
12067WAT     H250153   4.360   5.758   8.355
12068WAT      O50154   3.935   0.457  11.685
12068WAT     H150155   3.966   0.543  11.714
12068WAT     H250156   3.917   0.470  11.591
12069WAT      O50157   0.394   3.946   1.115
12069WAT     H150158   0.332   3.874   1.114
12069WAT     H250159   0.357   4.009   1.177
12070WAT      O50160   0.444   0.292   8.747
12070WAT     H150161   0.397   0.346   8.683
12070WAT     H250162   0.476   0.354   8.812
12071WAT      O50163   5.645   0.991  11.723
12071WAT     H150164   5.667   1.026  11.809
12071WAT     H250165   5.716   0.931  11.702
12072WAT      O50166   2.577   5.104  10.949
12072WAT     H150167   2.549   5.161  11.021
12072WAT     H250168   2.512   5.034  10.947
12073WAT      O50169   2.994   1.903  10.286
12073WAT     H150170   2.968   1.979  10.234
12073WAT     H250171   2.914   1.876  10.330
12074WAT      O50172   3.393   2.162  10.078
12074WAT     H150173   3.331   2.230  10.106
12074WAT     H250174   3.378   2.089  10.138
12075WAT      O50175   3.738   0.173  12.299
12075WAT     H150176   3.653   0.176  12.254
12075WAT     H250177   3.715   0.171  12.392
12076WAT      O50178   2.052   3.358   9.734
12076WAT     H150179   2.073   3.265   9.727
12076WAT     H250180   2.025   3.370   9.825
12077WAT      O50181   3.209   0.743   8.687
12077WAT     H150182   3.158   0.816   8.650
12077WAT     H250183   3.144   0.678   8.713
12078WAT      O50184   2.672   4.771  10.760
12078WAT     H150185   2.698   4.781  10.851
12078WAT     H250186   2.669   4.676  10.746
12079WAT      O50187   1.588   2.569   1.295
12079WAT     H150188   1.594   2.622   1.375
12079WAT     H250189   1.629   2.486   1.318
12080WAT      O50190   3.654   4.659   8.777
12080WAT     H150191   3.710   4.581   8.773
12080WAT     H250192   3.595   4.643   8.850
12081WAT      O50193   3.823   3.057  11.480
12081WAT     H150194   3.800   2.972  11.442
12081WAT     H250195   3.905   3.041  11.527
12082WAT      O50196   5.333   0.741  10.109
12082WAT     H150197   5.301   0.684  10.039
12082WAT     H250198   5.255   0.764  10.160
12083WAT      O50199   0.818   2.512  11.537
12083WAT     H150200   0.732   2.472  11.551
12083WAT     H250201   0.816   2.541  11.446
12084WAT      O50202   5.216   2.158  11.904
12084WAT     H150203   5.151   2.109  11.853
12084WAT     H250204   5.299   2.144  11.857
12085WAT      O50205   3.096   4.952  12.323
12085WAT     H150206   3.168   4.971  12.383
12085WAT     H250207   3.110   5.012  12.249
12086WAT      O50208   3.833   2.606  12.176
12086WAT     H150209   3.885   2.637  12.102
12086WAT     H250210   3.756   2.663  12.177
12087WAT      O50211   6.034   5.009   2.056
12087WAT     H150212   6.065   5.042   2.140
12087WAT     H250213   6.044   5.082   1.996
12088WAT      O50214   1.839   5.309  10.385
12088WAT     H150215   1.863   5.392  10.426
12088WAT     H250216   1.837   5.328  10.291
12089WAT      O50217   5.161   2.480   9.594
12089WAT     H150218   5.234   2.446   9.542
12089WAT     H250219   5.102   2.406   9.604
12090WAT      O50220   0.914   2.637   1.354
12090WAT     H150221   0.909   2.689   1.274
12090WAT     H250222   0.955   2.555   1.327
12091WAT      O50223   3.839   4.130   1.058
12091WAT     H150224   3.909   4.182   1.099
12091WAT     H250225   3.870   4.040   1.065
12092WAT      O50226   1.358   2.011  12.267
12092WAT     H150227   1.389   2.056  12.188
12092WAT     H250228   1.432   2.013  12.327
12093WAT      O50229   5.526   4.926   0.918
12093WAT     H150230   5.470   4.918   0.996
12093WAT     H250231   5.574   5.007   0.932
12094WAT      O50232   3.818   5.952  11.697
12094WAT     H150233   3.795   5.995  11.779
12094WAT     H250234   3.769   5.998  11.629
12095WAT      O50235   5.224   1.380   1.249
12095WAT     H150236   5.303   1.365   1.197
12095WAT     H250237   5.256   1.416   1.332
12096WAT      O50238   0.307   4.669  12.166
12096WAT     H150239   0.389   4.639  12.127
12096WAT     H250240   0.257   4.589  12.182
12097WAT      O50241   3.030   0.127   8.486
12097WAT     H150242   2.971   0.057   8.512
12097WAT     H250243   3.083   0.089   8.416
12098WAT      O50244   0.328   1.815   4.865
12098WAT     H150245   0.380   1.776   4.935
12098WAT     H250246   0.377   1.794   4.785
12099WAT      O50247   3.904   0.114   2.453
12099WAT     H150248   3.874   0.052   2.520
12099WAT     H250249   3.860   0.085   2.373
12100WAT      O50250   0.804   2.167  11.508
12100WAT     H150251   0.737   2.227  11.541
12100WAT     H250252   0.874   2.224  11.476
12101WAT      O50253   4.743   0.234   1.375
12101WAT     H150254   4.733   0.325   1.405
12101WAT     H250255   4.808   0.196   1.434
12102WAT      O50256   3.973   5.595   0.145
12102WAT     H150257   4.022   5.624   0.067
12102WAT     H250258   3.889   5.565   0.110
12103WAT      O50259   5.369   3.591   2.055
12103WAT     H150260   5.298   3.531   2.079
12103WAT     H250261   5.327   3.675   2.043
12104WAT      O50262   0.056   0.481  11.587
12104WAT     H150263   0.098   0.395  11.595
12104WAT     H250264  -0.032   0.467  11.623
12105WAT      O50265   5.735   1.283   3.805
12105WAT     H150266   5.711   1.313   3.893
12105WAT     H250267   5.674   1.328   3.747
12106WAT      O50268   0.925   2.771   2.039
12106WAT     H150269   1.016   2.742   2.030
12106WAT     H250270   0.873   2.694   2.015
12107WAT      O50271   3.302   5.531  12.392
12107WAT     H150272   3.389   5.513  12.357
12107WAT     H250273   3.302   5.626  12.408
12108WAT      O50274   3.244   0.064   1.103
12108WAT     H150275   3.216   0.114   1.026
12108WAT     H250276   3.302   0.124   1.150
12109WAT      O50277   4.525   3.455   2.875
12109WAT     H150278   4.620   3.464   2.885
12109WAT     H250279   4.494   3.429   2.961
12110WAT      O50280   6.044   5.984   1.452
12110WAT     H150281   6.066   5.921   1.383
12110WAT     H250282   5.951   6.002   1.440
12111WAT      O50283   5.971   0.576  10.682
12111WAT     H150284   5.923   0.519  10.742
12111WAT     H250285   6.028   0.517  10.633
12112WAT      O50286   0.465   1.483   2.908
12112WAT     H150287   0.544   1.504   2.858
12112WAT     H250288   0.408   1.439   2.846
12113WAT      O50289   4.738   1.621   8.379
12113WAT     H150290   4.658   1.618   8.432
12113WAT     H250291   4.797   1.677   8.430
12114WAT      O50292   2.395   1.672   0.179
12114WAT     H150293   2.393   1.764   0.155
12114WAT     H250294   2.418   1.672   0.272
12115WAT      O50295   3.992   4.233   9.202
12115WAT     H150296   3.907   4.236   9.246
12115WAT     H250297   3.991   4.307   9.141
12116WAT      O50298   4.350   0.365   3.708
12116WAT     H150299   4.442   0.370   3.682
12116WAT     H250300   4.349   0.303   3.781
12117WAT      O50301   3.925   2.774  10.816
12117WAT     H150302   3.884   2.699  10.859
12117WAT     H250303   3.917   2.845  10.879
12118WAT      O50304   1.940   5.080   3.711
12118WAT     H150305   1.960   5.112   3.623
12118WAT     H250306   1.872   5.014   3.698
12119WAT      O50307   4.863   6.154   9.095
12119WAT     H150308   4.807   6.181   9.022
12119WAT     H250309   4.835   6.209   9.168
12120WAT      O50310   5.106   4.861   0.289
12120WAT     H150311   5.140   4.944   0.322
12120WAT     H250312   5.144   4.852   0.202
12121WAT      O50313   1.920   4.806   2.884
12121WAT     H150314   1.871   4.819   2.965
12121WAT     H250315   1.923   4.711   2.872
12122WAT      O50316   1.682   2.981   0.842
12122WAT     H150317   1.670   2.957   0.934
12122WAT     H250318   1.632   3.063   0.832
12123WAT      O50319   0.258   4.785  11.095
12123WAT     H150320   0.169   4.775  11.061
12123WAT     H250321   0.306   4.710  11.059
12124WAT      O50322   1.283   1.173   0.977
12124WAT     H150323   1.266   1.234   0.905
12124WAT     H250324   1.373   1.190   1.002
12125WAT      O50325   0.026   1.813   2.416
12125WAT     H150326   0.115   1.838   2.440
12125WAT     H250327  -0.012   1.777   2.497
12126WAT      O50328   5.763   0.633   8.993
12126WAT     H150329   5.726   0.576   9.060
12126WAT     H250330   5.836   0.584   8.957
12127WAT      O50331   2.829   0.549   9.394
12127WAT     H150332   2.920   0.520   9.386
12127WAT     H250333   2.832   0.643   9.380
12128WAT      O50334   5.565   0.780  10.589
12128WAT     H150335   5.599   0.827  10.513
12128WAT     H250336   5.471   0.799  10.588
12129WAT      O50337   1.649   2.513  12.565
12129WAT     H150338   1.559   2.479  12.564
12129WAT     H250339   1.641   2.603  12.532
12130WAT      O50340   4.010   5.601  12.291
12130WAT     H150341   4.060   5.634  12.216
12130WAT     H250342   3.950   5.672  12.314
12131WAT      O50343   6.003   1.980   0.818
12131WAT     H150344   6.093   2.013   0.818
12131WAT     H250345   5.957   2.036   0.756
12132WAT      O50346   1.403   0.856  12.228
12132WAT     H150347   1.494   0.864  12.200
12132WAT     H250348   1.398   0.768  12.266
12133WAT      O50349   1.605   3.832  10.780
12133WAT     H150350   1.659   3.904  10.745
12133WAT     H250351   1.575   3.785  10.702
12134WAT      O50352   5.397   1.444   8.205
12134WAT     H150353   5.377   1.397   8.286
12134WAT     H250354   5.437   1.378   8.148
12135WAT      O50355   1.770   5.662   2.513
12135WAT     H150356   1.748   5.686   2.423
12135WAT     H250357   1.741   5.571   2.521
12136WAT      O50358   1.339   1.678   4.442
12136WAT     H150359   1.359   1.606   4.501
12136WAT     H250360   1.267   1.725   4.485
12137WAT      O50361   1.558   3.710  10.516
12137WAT     H150362   1.615   3.756  10.455
12137WAT     H250363   1.581   3.617  10.506
12138WAT      O50364   2.202   5.001   0.438
12138WAT     H150365   2.268   5.068   0.456
12138WAT     H250366   2.123   5.032   0.482
12139WAT      O50367   4.454   4.369   1.105
12139WAT     H150368   4.401   4.306   1.056
12139WAT     H250369   4.490   4.427   1.037
12140WAT      O50370   4.036   6.037   7.677
12140WAT     H150371   4.113   5.983   7.693
12140WAT     H250372   3.990   6.040   7.761
12141WAT      O50373   4.276   1.002   2.923
12141WAT     H150374   4.230   1.058   2.985
12141WAT     H250375   4.357   1.049   2.903
12142WAT      O50376   1.594   2.798  10.040
12142WAT     H150377   1.588   2.782  10.134
12142WAT     H250378   1.520   2.749  10.003
12143WAT      O50379   1.913   5.548   0.200
12143WAT     H150380   1.876   5.535   0.287
12143WAT     H250381   2.007   5.555   0.214
12144WAT      O50382   0.937   3.274  12.627
12144WAT     H150383   0.875   3.202  12.631
12144WAT     H250384   1.010   3.241  12.575
12145WAT      O50385   5.616   1.503   9.089
12145WAT     H150386   5.649   1.413   9.092
12145WAT     H250387   5.692   1.556   9.113
12146WAT      O50388   2.026   0.770  12.260
12146WAT     H150389   1.977   0.831  12.314
12146WAT     H250390   2.097   0.822  12.222
12147WAT      O50391   4.229   1.214   9.394
12147WAT     H150392   4.270   1.300   9.387
12147WAT     H250393   4.191   1.213   9.483
12148WAT      O50394   6.147   1.291   1.138
12148WAT     H150395   6.086   1.258   1.072
12148WAT     H250396   6.141   1.386   1.131
12149WAT      O50397   2.606   4.970   0.975
12149WAT     H150398   2.535   5.011   1.024
12149WAT     H250399   2.665   5.042   0.953
12150WAT      O50400   5.751   5.130   0.563
12150WAT     H150401   5.722   5.059   0.505
12150WAT     H250402   5.825   5.169   0.517
12151WAT      O50403   4.982   5.970   0.604
12151WAT     H150404   5.067   6.005   0.633
12151WAT     H250405   4.983   5.879   0.633
12152WAT      O50406   5.980   4.669   0.898
12152WAT     H150407   6.003   4.730   0.969
12152WAT     H250408   5.885   4.663   0.901
12153WAT      O50409   2.991   2.251   0.083
12153WAT     H150410   3.051   2.231   0.155
12153WAT     H250411   2.996   2.174   0.026
12154WAT      O50412   1.403   5.191   3.114
12154WAT     H150413   1.452   5.141   3.050
12154WAT     H250414   1.452   5.273   3.124
12155WAT      O50415   2.752   1.512   2.510
12155WAT     H150416   2.714   1.517   2.598
12155WAT     H250417   2.839   1.474   2.524
12156WAT      O50418   1.511   3.599   9.582
12156WAT     H150419   1.463   3.632   9.658
12156WAT     H250420   1.535   3.510   9.606
12157WAT      O50421   0.160   5.012   1.110
12157WAT     H150422   0.076   5.003   1.153
12157WAT     H250423   0.189   4.922   1.094
12158WAT      O50424   2.609   2.110   9.624
12158WAT     H150425   2.561   2.153   9.553
12158WAT     H250426   2.637   2.181   9.681
12159WAT      O50427   0.591   0.171   9.970
12159WAT     H150428   0.645   0.243   9.937
12159WAT     H250429   0.569   0.120   9.892
12160WAT      O50430   5.064   2.798   8.122
12160WAT     H150431   4.985   2.756   8.155
12160WAT     H250432   5.109   2.730   8.072
12161WAT      O50433   5.889   0.010  12.565
12161WAT     H150434   5.872   0.058  12.484
12161WAT     H250435   5.873   0.074  12.635
12162WAT      O50436   0.140   2.717  11.342
12162WAT     H150437   0.094   2.634  11.358
12162WAT     H250438   0.070   2.782  11.341
12163WAT      O50439   0.603   4.015  10.618
12163WAT     H150440   0.535   3.967  10.569
12163WAT     H250441   0.560   4.041  10.699
12164WAT      O50442   0.084   3.274   0.259
12164WAT     H150443   0.092   3.340   0.191
12164WAT     H250444   0.171   3.269   0.298
12165WAT      O50445   3.009   1.850   3.173
12165WAT     H150446   2.948   1.903   3.123
12165WAT     H250447   3.030   1.776   3.115
12166WAT      O50448   2.845   3.123   1.318
12166WAT     H150449   2.778   3.179   1.278
12166WAT     H250450   2.804   3.036   1.322
12167WAT      O50451   4.082   0.345   3.680
12167WAT     H150452   4.177   0.342   3.684
12167WAT     H250453   4.053   0.298   3.759
12168WAT      O50454   4.232   3.491   3.620
12168WAT     H150455   4.292   3.434   3.572
12168WAT     H250456   4.247   3.578   3.584
12169WAT      O50457   5.667   6.002   2.361
12169WAT     H150458   5.659   6.003   2.266
12169WAT     H250459   5.576   6.007   2.392
12170WAT      O50460   2.258   4.196   2.043
12170WAT     H150461   2.237   4.242   1.962
12170WAT     H250462   2.291   4.263   2.101
12171WAT      O50463   0.688   0.650   2.049
12171WAT     H150464   0.738   0.688   1.977
12171WAT     H250465   0.755   0.609   2.105
12172WAT      O50466   3.725   4.850   9.736
12172WAT     H150467   3.739   4.890   9.822
12172WAT     H250468   3.700   4.759   9.756
12173WAT      O50469   4.668   4.956   8.066
12173WAT     H150470   4.582   4.958   8.025
12173WAT     H250471   4.650   4.959   8.160
12174WAT      O50472   3.610   2.915   9.950
12174WAT     H150473   3.638   2.836   9.903
12174WAT     H250474   3.683   2.935  10.008
12175WAT      O50475   1.875   1.523   1.340
12175WAT     H150476   1.867   1.592   1.406
12175WAT     H250477   1.795   1.472   1.350
12176WAT      O50478   4.119   5.846   3.689
12176WAT     H150479   4.040   5.895   3.714
12176WAT     H250480   4.191   5.892   3.733
12177WAT      O50481   3.901   0.126  12.605
12177WAT     H150482   3.809   0.145  12.588
12177WAT     H250483   3.944   0.211  12.604
12178WAT      O50484   5.765   1.380  12.492
12178WAT     H150485   5.763   1.475  12.485
12178WAT     H250486   5.808   1.350  12.412
12179WAT      O50487   5.346   1.733  10.580
12179WAT     H150488   5.318   1.642  10.577
12179WAT     H250489   5.424   1.733  10.636
12180WAT      O50490   4.256   5.820   3.470
12180WAT     H150491   4.214   5.846   3.552
12180WAT     H250492   4.311   5.895   3.447
12181WAT      O50493   2.776   1.646   9.429
12181WAT     H150494   2.797   1.553   9.441
12181WAT     H250495   2.832   1.674   9.357
12182WAT      O50496   1.511   3.420   0.672
12182WAT     H150497   1.590   3.466   0.643
12182WAT     H250498   1.463   3.485   0.724
12183YT0    H0150499   4.629   3.457   1.694
12183YT0    H0250500   4.557   3.511   1.540
12183YT0    H0350501   4.471   3.392   1.642
12183YT0    H0450502   4.695   3.408   1.342
12183YT0    H0550503   5.162   3.034   1.005
12183YT0    H0650504   4.836   3.269   1.196
12183YT0    H0750505   5.266   2.838   1.031
12183YT0    H0850506   5.290   2.789   1.200
12183YT0    H0950507   5.166   2.708   1.101
12183YT0    H1050508   4.848   2.796   1.496
12183YT0    H1150509   4.991   2.787   1.574
12183YT0    H1250510   4.758   2.599   1.452
12183YT0    H1350511   4.835   2.433   1.454
12183YT0    H1450512   5.145   2.409   1.471
12183YT0    H1550513   4.997   2.337   1.536
12183YT0    H1650514   5.233   2.435   1.700
12183YT0    H1750515   5.196   2.264   1.663
12183YT0    H1850516   5.070   2.300   1.997
12183YT0    H1950517   5.199   2.231   1.895
12183YT0    H2050518   5.207   2.402   1.944
12183YT0    H2150519   5.080   2.560   1.840
12183YT0    H2250520   4.929   2.479   1.898
12183YT0    H2350521   4.892   2.639   1.712
12183YT0    H2450522   4.846   2.470   1.670
12183YT0    H2550523   5.067   2.590   1.235
12183YT0    H2650524   5.175   2.615   1.354
12183YT0     C150525   4.570   3.427   1.607
12183YT0     C250526   4.639   3.316   1.535
12183YT0     C350527   4.702   3.322   1.409
12183YT0     C450528   4.775   3.211   1.380
12183YT0     C550529   4.938   3.097   1.236
12183YT0     C650530   5.100   3.021   1.094
12183YT0     C750531   5.114   2.904   1.166
12183YT0     N150532   4.848   3.197   1.266
12183YT0     C850533   5.216   2.802   1.122
12183YT0     C950534   5.031   2.891   1.279
12183YT0    C1050535   4.946   2.751   1.481
12183YT0    C1150536   4.967   2.600   1.453
12183YT0    C1250537   4.836   2.534   1.413
12183YT0    C1350538   4.810   2.524   1.269
12183YT0    C1450539   5.078   2.406   1.556
12183YT0    C1550540   5.154   2.362   1.680
12183YT0     N250541   5.013   3.117   1.126
12183YT0    C1650542   5.140   2.321   1.916
12183YT0    C1750543   5.002   2.488   1.817
12183YT0    C1850544   4.930   2.537   1.693
12183YT0    C1950545   5.070   2.636   1.334
12183YT0     N350546   5.026   2.774   1.360
12183YT0     N450547   4.785   2.510   1.157
12183YT0     N550548   5.022   2.541   1.578
12183YT0     N650549   5.065   2.358   1.796
12183YT0     N750550   4.944   2.987   1.313
12183YT0     S150551   4.745   3.091   1.499
12183YT0     N850552   4.642   3.192   1.587
   6.24144   6.22127  12.67849
