; YT0_GMX.top created by acpype (v: 2023.10.27) on Sun Nov 16 17:47:51 2025

[ moleculetype ]
;name            nrexcl
 YT0              3

[ atoms ]
;   nr  type  resi  res  atom  cgnr     charge      mass       ; qtot   bond_type
     1   hc     1   YT0   H01    1     0.054367      1.00800 ; qtot 0.054
     2   hc     1   YT0   H02    2     0.054367      1.00800 ; qtot 0.109
     3   hc     1   YT0   H03    3     0.054367      1.00800 ; qtot 0.163
     4   ha     1   YT0   H04    4     0.146000      1.00800 ; qtot 0.309
     5   h4     1   YT0   H05    5     0.029100      1.00800 ; qtot 0.338
     6   hn     1   YT0   H06    6     0.516000      1.00800 ; qtot 0.854
     7   hc     1   YT0   H07    7     0.043700      1.00800 ; qtot 0.898
     8   hc     1   YT0   H08    8     0.043700      1.00800 ; qtot 0.942
     9   hc     1   YT0   H09    9     0.043700      1.00800 ; qtot 0.985
    10   h1     1   YT0   H10   10     0.077200      1.00800 ; qtot 1.063
    11   h1     1   YT0   H11   11     0.077200      1.00800 ; qtot 1.140
    12   hc     1   YT0   H12   12     0.083700      1.00800 ; qtot 1.223
    13   hc     1   YT0   H13   13     0.083700      1.00800 ; qtot 1.307
    14   h1     1   YT0   H14   14     0.039200      1.00800 ; qtot 1.346
    15   h1     1   YT0   H15   15     0.039200      1.00800 ; qtot 1.386
    16   h1     1   YT0   H16   16     0.041200      1.00800 ; qtot 1.427
    17   h1     1   YT0   H17   17     0.041200      1.00800 ; qtot 1.468
    18   h1     1   YT0   H18   18     0.034033      1.00800 ; qtot 1.502
    19   h1     1   YT0   H19   19     0.034033      1.00800 ; qtot 1.536
    20   h1     1   YT0   H20   20     0.034033      1.00800 ; qtot 1.570
    21   h1     1   YT0   H21   21     0.041200      1.00800 ; qtot 1.611
    22   h1     1   YT0   H22   22     0.041200      1.00800 ; qtot 1.652
    23   h1     1   YT0   H23   23     0.039200      1.00800 ; qtot 1.692
    24   h1     1   YT0   H24   24     0.039200      1.00800 ; qtot 1.731
    25   h1     1   YT0   H25   25     0.077200      1.00800 ; qtot 1.808
    26   h1     1   YT0   H26   26     0.077200      1.00800 ; qtot 1.885
    27   c3     1   YT0    C1   27    -0.129400     12.01000 ; qtot 1.756
    28   cc     1   YT0    C2   28     0.332300     12.01000 ; qtot 2.088
    29   cc     1   YT0    C3   29    -0.282000     12.01000 ; qtot 1.806
    30   cd     1   YT0    C4   30     0.149000     12.01000 ; qtot 1.955
    31   ca     1   YT0    C5   31     0.365900     12.01000 ; qtot 2.321
    32   ca     1   YT0    C6   32     0.147900     12.01000 ; qtot 2.469
    33   ca     1   YT0    C7   33    -0.241300     12.01000 ; qtot 2.228
    34   nu     1   YT0    N1   34    -0.877900     14.01000 ; qtot 1.350
    35   c3     1   YT0    C8   35    -0.030800     12.01000 ; qtot 1.319
    36   ca     1   YT0    C9   36     0.357900     12.01000 ; qtot 1.677
    37   cy     1   YT0   C10   37     0.178300     12.01000 ; qtot 1.855
    38   cy     1   YT0   C11   38     0.161200     12.01000 ; qtot 2.016
    39   c3     1   YT0   C12   39    -0.051300     12.01000 ; qtot 1.965
    40   c1     1   YT0   C13   40     0.293900     12.01000 ; qtot 2.259
    41   c6     1   YT0   C14   41     0.171800     12.01000 ; qtot 2.431
    42   c6     1   YT0   C15   42     0.168300     12.01000 ; qtot 2.599
    43   nb     1   YT0    N2   43    -0.225000     14.01000 ; qtot 2.374
    44   c3     1   YT0   C16   44     0.157100     12.01000 ; qtot 2.531
    45   c6     1   YT0   C17   45     0.168300     12.01000 ; qtot 2.699
    46   c6     1   YT0   C18   46     0.171800     12.01000 ; qtot 2.871
    47   cy     1   YT0   C19   47     0.178300     12.01000 ; qtot 3.050
    48   nn     1   YT0    N3   48    -0.709300     14.01000 ; qtot 2.340
    49   n1     1   YT0    N4   49    -0.448000     14.01000 ; qtot 1.892
    50   n3     1   YT0    N5   50    -0.722600     14.01000 ; qtot 1.170
    51   n3     1   YT0    N6   51    -0.734600     14.01000 ; qtot 0.435
    52   nb     1   YT0    N7   52    -0.267000     14.01000 ; qtot 0.168
    53   ss     1   YT0    S1   53     0.405100     32.06000 ; qtot 0.573
    54   nd     1   YT0    N8   54    -0.573100     14.01000 ; qtot -0.000

[ bonds ]
;   ai     aj funct   r             k
     1     27   1    1.0962e-01    2.8891e+05 ;    H01 - C1    
     2     27   1    1.0962e-01    2.8891e+05 ;    H02 - C1    
     3     27   1    1.0962e-01    2.8891e+05 ;    H03 - C1    
     4     29   1    1.0838e-01    3.0470e+05 ;    H04 - C3    
     5     32   1    1.0885e-01    2.9859e+05 ;    H05 - C6    
     6     34   1    1.0137e-01    3.9538e+05 ;    H06 - N1    
     7     35   1    1.0962e-01    2.8891e+05 ;    H07 - C8    
     8     35   1    1.0962e-01    2.8891e+05 ;    H08 - C8    
     9     35   1    1.0962e-01    2.8891e+05 ;    H09 - C8    
    10     37   1    1.0946e-01    2.9088e+05 ;    H10 - C10   
    11     37   1    1.0946e-01    2.9088e+05 ;    H11 - C10   
    12     39   1    1.0962e-01    2.8891e+05 ;    H12 - C12   
    13     39   1    1.0962e-01    2.8891e+05 ;    H13 - C12   
    14     41   1    1.0984e-01    2.8620e+05 ;    H14 - C14   
    15     41   1    1.0984e-01    2.8620e+05 ;    H15 - C14   
    16     42   1    1.0984e-01    2.8620e+05 ;    H16 - C15   
    17     42   1    1.0984e-01    2.8620e+05 ;    H17 - C15   
    18     44   1    1.0969e-01    2.8804e+05 ;    H18 - C16   
    19     44   1    1.0969e-01    2.8804e+05 ;    H19 - C16   
    20     44   1    1.0969e-01    2.8804e+05 ;    H20 - C16   
    21     45   1    1.0984e-01    2.8620e+05 ;    H21 - C17   
    22     45   1    1.0984e-01    2.8620e+05 ;    H22 - C17   
    23     46   1    1.0984e-01    2.8620e+05 ;    H23 - C18   
    24     46   1    1.0984e-01    2.8620e+05 ;    H24 - C18   
    25     47   1    1.0946e-01    2.9088e+05 ;    H25 - C19   
    26     47   1    1.0946e-01    2.9088e+05 ;    H26 - C19   
    27     28   1    1.5002e-01    2.1350e+05 ;     C1 - C2    
    28     29   1    1.4274e-01    2.6947e+05 ;     C2 - C3    
    28     54   1    1.3158e-01    3.5122e+05 ;     C2 - N8    
    29     30   1    1.3730e-01    3.2321e+05 ;     C3 - C4    
    30     34   1    1.3711e-01    2.8968e+05 ;     C4 - N1    
    30     53   1    1.7622e-01    1.8956e+05 ;     C4 - S1    
    31     34   1    1.3944e-01    2.6771e+05 ;     C5 - N1    
    31     43   1    1.3392e-01    3.2341e+05 ;     C5 - N2    
    31     52   1    1.3392e-01    3.2341e+05 ;     C5 - N7    
    32     33   1    1.3986e-01    2.9644e+05 ;     C6 - C7    
    32     43   1    1.3392e-01    3.2341e+05 ;     C6 - N2    
    33     35   1    1.5147e-01    2.0410e+05 ;     C7 - C8    
    33     36   1    1.3986e-01    2.9644e+05 ;     C7 - C9    
    36     48   1    1.3749e-01    2.8594e+05 ;     C9 - N3    
    36     52   1    1.3392e-01    3.2341e+05 ;     C9 - N7    
    37     38   1    1.5578e-01    1.7898e+05 ;    C10 - C11   
    37     48   1    1.4783e-01    2.0366e+05 ;    C10 - N3    
    38     39   1    1.5303e-01    1.9455e+05 ;    C11 - C12   
    38     47   1    1.5578e-01    1.7898e+05 ;    C11 - C19   
    38     50   1    1.4658e-01    2.1192e+05 ;    C11 - N5    
    39     40   1    1.4656e-01    2.3814e+05 ;    C12 - C13   
    40     49   1    1.1619e-01    6.2865e+05 ;    C13 - N4    
    41     42   1    1.5384e-01    1.8979e+05 ;    C14 - C15   
    41     50   1    1.4657e-01    2.1199e+05 ;    C14 - N5    
    42     51   1    1.4657e-01    2.1199e+05 ;    C15 - N6    
    44     51   1    1.4626e-01    2.1410e+05 ;    C16 - N6    
    45     46   1    1.5384e-01    1.8979e+05 ;    C17 - C18   
    45     51   1    1.4657e-01    2.1199e+05 ;    C17 - N6    
    46     50   1    1.4657e-01    2.1199e+05 ;    C18 - N5    
    47     48   1    1.4783e-01    2.0366e+05 ;    C19 - N3    
    53     54   1    1.6659e-01    2.7044e+05 ;     S1 - N8    

[ pairs ]
;   ai     aj    funct
     1     29      1 ;    H01 - C3    
     1     54      1 ;    H01 - N8    
     2     29      1 ;    H02 - C3    
     2     54      1 ;    H02 - N8    
     3     29      1 ;    H03 - C3    
     3     54      1 ;    H03 - N8    
     4     27      1 ;    H04 - C1    
     4     34      1 ;    H04 - N1    
     4     53      1 ;    H04 - S1    
     4     54      1 ;    H04 - N8    
     5     31      1 ;    H05 - C5    
     5     35      1 ;    H05 - C8    
     5     36      1 ;    H05 - C9    
     6     29      1 ;    H06 - C3    
     6     43      1 ;    H06 - N2    
     6     52      1 ;    H06 - N7    
     6     53      1 ;    H06 - S1    
     7     32      1 ;    H07 - C6    
     7     36      1 ;    H07 - C9    
     8     32      1 ;    H08 - C6    
     8     36      1 ;    H08 - C9    
     9     32      1 ;    H09 - C6    
     9     36      1 ;    H09 - C9    
    10     36      1 ;    H10 - C9    
    10     39      1 ;    H10 - C12   
    10     47      1 ;    H10 - C19   
    10     50      1 ;    H10 - N5    
    11     36      1 ;    H11 - C9    
    11     39      1 ;    H11 - C12   
    11     47      1 ;    H11 - C19   
    11     50      1 ;    H11 - N5    
    12     37      1 ;    H12 - C10   
    12     47      1 ;    H12 - C19   
    12     49      1 ;    H12 - N4    
    12     50      1 ;    H12 - N5    
    13     37      1 ;    H13 - C10   
    13     47      1 ;    H13 - C19   
    13     49      1 ;    H13 - N4    
    13     50      1 ;    H13 - N5    
    14     16      1 ;    H14 - H16   
    14     17      1 ;    H14 - H17   
    14     38      1 ;    H14 - C11   
    14     46      1 ;    H14 - C18   
    14     51      1 ;    H14 - N6    
    15     16      1 ;    H15 - H16   
    15     17      1 ;    H15 - H17   
    15     38      1 ;    H15 - C11   
    15     46      1 ;    H15 - C18   
    15     51      1 ;    H15 - N6    
    16     44      1 ;    H16 - C16   
    16     45      1 ;    H16 - C17   
    16     50      1 ;    H16 - N5    
    17     44      1 ;    H17 - C16   
    17     45      1 ;    H17 - C17   
    17     50      1 ;    H17 - N5    
    18     42      1 ;    H18 - C15   
    18     45      1 ;    H18 - C17   
    19     42      1 ;    H19 - C15   
    19     45      1 ;    H19 - C17   
    20     42      1 ;    H20 - C15   
    20     45      1 ;    H20 - C17   
    21     23      1 ;    H21 - H23   
    21     24      1 ;    H21 - H24   
    21     42      1 ;    H21 - C15   
    21     44      1 ;    H21 - C16   
    21     50      1 ;    H21 - N5    
    22     23      1 ;    H22 - H23   
    22     24      1 ;    H22 - H24   
    22     42      1 ;    H22 - C15   
    22     44      1 ;    H22 - C16   
    22     50      1 ;    H22 - N5    
    23     38      1 ;    H23 - C11   
    23     41      1 ;    H23 - C14   
    23     51      1 ;    H23 - N6    
    24     38      1 ;    H24 - C11   
    24     41      1 ;    H24 - C14   
    24     51      1 ;    H24 - N6    
    25     36      1 ;    H25 - C9    
    25     37      1 ;    H25 - C10   
    25     39      1 ;    H25 - C12   
    25     50      1 ;    H25 - N5    
    26     36      1 ;    H26 - C9    
    26     37      1 ;    H26 - C10   
    26     39      1 ;    H26 - C12   
    26     50      1 ;    H26 - N5    
    27     30      1 ;     C1 - C4    
    27     53      1 ;     C1 - S1    
    28     34      1 ;     C2 - N1    
    29     31      1 ;     C3 - C5    
    30     43      1 ;     C4 - N2    
    30     52      1 ;     C4 - N7    
    31     33      1 ;     C5 - C7    
    31     48      1 ;     C5 - N3    
    31     53      1 ;     C5 - S1    
    32     34      1 ;     C6 - N1    
    32     48      1 ;     C6 - N3    
    32     52      1 ;     C6 - N7    
    33     37      1 ;     C7 - C10   
    33     47      1 ;     C7 - C19   
    34     36      1 ;     N1 - C9    
    34     54      1 ;     N1 - N8    
    35     43      1 ;     C8 - N2    
    35     48      1 ;     C8 - N3    
    35     52      1 ;     C8 - N7    
    36     38      1 ;     C9 - C11   
    36     43      1 ;     C9 - N2    
    37     40      1 ;    C10 - C13   
    37     41      1 ;    C10 - C14   
    37     46      1 ;    C10 - C18   
    37     52      1 ;    C10 - N7    
    38     42      1 ;    C11 - C15   
    38     45      1 ;    C11 - C17   
    38     49      1 ;    C11 - N4    
    39     41      1 ;    C12 - C14   
    39     46      1 ;    C12 - C18   
    39     48      1 ;    C12 - N3    
    40     47      1 ;    C13 - C19   
    40     50      1 ;    C13 - N5    
    41     44      1 ;    C14 - C16   
    41     45      1 ;    C14 - C17   
    41     47      1 ;    C14 - C19   
    42     46      1 ;    C15 - C18   
    44     46      1 ;    C16 - C18   
    46     47      1 ;    C18 - C19   
    47     52      1 ;    C19 - N7    
    48     50      1 ;     N3 - N5    
    50     51      1 ;     N5 - N6    

[ angles ]
;   ai     aj     ak    funct   theta         cth
     1     27      2      1    1.0773e+02    2.9957e+02 ;    H01 - C1     - H02   
     1     27      3      1    1.0773e+02    2.9957e+02 ;    H01 - C1     - H03   
     1     27     28      1    1.1036e+02    3.6853e+02 ;    H01 - C1     - C2    
     2     27      3      1    1.0773e+02    2.9957e+02 ;    H02 - C1     - H03   
     2     27     28      1    1.1036e+02    3.6853e+02 ;    H02 - C1     - C2    
     3     27     28      1    1.1036e+02    3.6853e+02 ;    H03 - C1     - C2    
     4     29     28      1    1.1971e+02    3.6987e+02 ;    H04 - C3     - C2    
     4     29     30      1    1.2140e+02    3.7907e+02 ;    H04 - C3     - C4    
     5     32     33      1    1.2032e+02    3.7489e+02 ;    H05 - C6     - C7    
     5     32     43      1    1.1602e+02    4.1924e+02 ;    H05 - C6     - N2    
     6     34     30      1    1.1384e+02    4.8995e+02 ;    H06 - N1     - C4    
     6     34     31      1    1.1473e+02    4.8083e+02 ;    H06 - N1     - C5    
     7     35      8      1    1.0773e+02    2.9957e+02 ;    H07 - C8     - H08   
     7     35      9      1    1.0773e+02    2.9957e+02 ;    H07 - C8     - H09   
     7     35     33      1    1.1063e+02    3.6493e+02 ;    H07 - C8     - C7    
     8     35      9      1    1.0773e+02    2.9957e+02 ;    H08 - C8     - H09   
     8     35     33      1    1.1063e+02    3.6493e+02 ;    H08 - C8     - C7    
     9     35     33      1    1.1063e+02    3.6493e+02 ;    H09 - C8     - C7    
    10     37     11      1    1.0944e+02    2.9765e+02 ;    H10 - C10    - H11   
    10     37     38      1    1.1317e+02    3.5179e+02 ;    H10 - C10    - C11   
    10     37     48      1    1.1390e+02    3.9012e+02 ;    H10 - C10    - N3    
    11     37     38      1    1.1317e+02    3.5179e+02 ;    H11 - C10    - C11   
    11     37     48      1    1.1390e+02    3.9012e+02 ;    H11 - C10    - N3    
    12     39     13      1    1.0773e+02    2.9957e+02 ;    H12 - C12    - H13   
    12     39     38      1    1.1049e+02    3.6183e+02 ;    H12 - C12    - C11   
    12     39     40      1    1.0945e+02    3.7765e+02 ;    H12 - C12    - C13   
    13     39     38      1    1.1049e+02    3.6183e+02 ;    H13 - C12    - C11   
    13     39     40      1    1.0945e+02    3.7765e+02 ;    H13 - C12    - C13   
    14     41     15      1    1.0750e+02    2.9932e+02 ;    H14 - C14    - H15   
    14     41     42      1    1.0918e+02    3.6217e+02 ;    H14 - C14    - C15   
    14     41     50      1    1.0963e+02    4.0041e+02 ;    H14 - C14    - N5    
    15     41     42      1    1.0918e+02    3.6217e+02 ;    H15 - C14    - C15   
    15     41     50      1    1.0963e+02    4.0041e+02 ;    H15 - C14    - N5    
    16     42     17      1    1.0750e+02    2.9932e+02 ;    H16 - C15    - H17   
    16     42     41      1    1.0918e+02    3.6217e+02 ;    H16 - C15    - C14   
    16     42     51      1    1.0963e+02    4.0041e+02 ;    H16 - C15    - N6    
    17     42     41      1    1.0918e+02    3.6217e+02 ;    H17 - C15    - C14   
    17     42     51      1    1.0963e+02    4.0041e+02 ;    H17 - C15    - N6    
    18     44     19      1    1.0855e+02    2.9824e+02 ;    H18 - C16    - H19   
    18     44     20      1    1.0855e+02    2.9824e+02 ;    H18 - C16    - H20   
    18     44     51      1    1.1009e+02    4.0033e+02 ;    H18 - C16    - N6    
    19     44     20      1    1.0855e+02    2.9824e+02 ;    H19 - C16    - H20   
    19     44     51      1    1.1009e+02    4.0033e+02 ;    H19 - C16    - N6    
    20     44     51      1    1.1009e+02    4.0033e+02 ;    H20 - C16    - N6    
    21     45     22      1    1.0750e+02    2.9932e+02 ;    H21 - C17    - H22   
    21     45     46      1    1.0918e+02    3.6217e+02 ;    H21 - C17    - C18   
    21     45     51      1    1.0963e+02    4.0041e+02 ;    H21 - C17    - N6    
    22     45     46      1    1.0918e+02    3.6217e+02 ;    H22 - C17    - C18   
    22     45     51      1    1.0963e+02    4.0041e+02 ;    H22 - C17    - N6    
    23     46     24      1    1.0750e+02    2.9932e+02 ;    H23 - C18    - H24   
    23     46     45      1    1.0918e+02    3.6217e+02 ;    H23 - C18    - C17   
    23     46     50      1    1.0963e+02    4.0041e+02 ;    H23 - C18    - N5    
    24     46     45      1    1.0918e+02    3.6217e+02 ;    H24 - C18    - C17   
    24     46     50      1    1.0963e+02    4.0041e+02 ;    H24 - C18    - N5    
    25     47     26      1    1.0944e+02    2.9765e+02 ;    H25 - C19    - H26   
    25     47     38      1    1.1317e+02    3.5179e+02 ;    H25 - C19    - C11   
    25     47     48      1    1.1390e+02    3.9012e+02 ;    H25 - C19    - N3    
    26     47     38      1    1.1317e+02    3.5179e+02 ;    H26 - C19    - C11   
    26     47     48      1    1.1390e+02    3.9012e+02 ;    H26 - C19    - N3    
    27     28     29      1    1.2276e+02    5.0275e+02 ;     C1 - C2     - C3    
    27     28     54      1    1.2387e+02    5.4836e+02 ;     C1 - C2     - N8    
    28     29     30      1    1.1919e+02    5.3363e+02 ;     C2 - C3     - C4    
    28     54     53      1    1.0780e+02    7.3655e+02 ;     C2 - N8     - S1    
    29     28     54      1    1.2605e+02    5.6091e+02 ;     C3 - C2     - N8    
    29     30     34      1    1.2269e+02    5.7028e+02 ;     C3 - C4     - N1    
    29     30     53      1    1.1335e+02    5.5095e+02 ;     C3 - C4     - S1    
    30     34     31      1    1.2970e+02    6.4065e+02 ;     C4 - N1     - C5    
    30     53     54      1    9.4110e+01    9.0818e+02 ;     C4 - S1     - N8    
    31     43     32      1    1.1724e+02    6.9580e+02 ;     C5 - N2     - C6    
    31     52     36      1    1.1724e+02    6.9580e+02 ;     C5 - N7     - C9    
    32     33     35      1    1.2083e+02    5.0827e+02 ;     C6 - C7     - C8    
    32     33     36      1    1.2002e+02    5.3279e+02 ;     C6 - C7     - C9    
    33     32     43      1    1.2294e+02    5.7045e+02 ;     C7 - C6     - N2    
    33     36     48      1    1.2130e+02    5.6735e+02 ;     C7 - C9     - N3    
    33     36     52      1    1.2294e+02    5.7045e+02 ;     C7 - C9     - N7    
    34     30     53      1    1.2112e+02    5.6593e+02 ;     N1 - C4     - S1    
    34     31     43      1    1.1717e+02    6.2132e+02 ;     N1 - C5     - N2    
    34     31     52      1    1.1717e+02    6.2132e+02 ;     N1 - C5     - N7    
    35     33     36      1    1.2083e+02    5.0827e+02 ;     C8 - C7     - C9    
    36     48     37      1    1.2719e+02    6.2542e+02 ;     C9 - N3     - C10   
    36     48     47      1    1.2719e+02    6.2542e+02 ;     C9 - N3     - C19   
    37     38     39      1    1.1830e+02    4.8601e+02 ;    C10 - C11    - C12   
    37     38     47      1    8.8440e+01    5.5731e+02 ;    C10 - C11    - C19   
    37     38     50      1    1.1585e+02    5.3162e+02 ;    C10 - C11    - N5    
    37     48     47      1    9.3310e+01    7.0659e+02 ;    C10 - N3     - C19   
    38     37     48      1    8.8520e+01    6.0593e+02 ;    C11 - C10    - N3    
    38     39     40      1    1.1029e+02    5.5898e+02 ;    C11 - C12    - C13   
    38     47     48      1    8.8520e+01    6.0593e+02 ;    C11 - C19    - N3    
    38     50     41      1    1.1171e+02    6.5128e+02 ;    C11 - N5     - C14   
    38     50     46      1    1.1171e+02    6.5128e+02 ;    C11 - N5     - C18   
    39     38     47      1    1.1830e+02    4.8601e+02 ;    C12 - C11    - C19   
    39     38     50      1    1.1053e+02    5.4978e+02 ;    C12 - C11    - N5    
    39     40     49      1    1.7866e+02    4.8049e+02 ;    C12 - C13    - N4    
    41     42     51      1    1.1084e+02    5.4743e+02 ;    C14 - C15    - N6    
    41     50     46      1    1.1070e+02    6.5429e+02 ;    C14 - N5     - C18   
    42     41     50      1    1.1084e+02    5.4743e+02 ;    C15 - C14    - N5    
    42     51     44      1    1.1238e+02    6.5003e+02 ;    C15 - N6     - C16   
    42     51     45      1    1.1070e+02    6.5429e+02 ;    C15 - N6     - C17   
    43     31     52      1    1.2730e+02    6.0886e+02 ;     N2 - C5     - N7    
    44     51     45      1    1.1238e+02    6.5003e+02 ;    C16 - N6     - C17   
    45     46     50      1    1.1084e+02    5.4743e+02 ;    C17 - C18    - N5    
    46     45     51      1    1.1084e+02    5.4743e+02 ;    C18 - C17    - N6    
    47     38     50      1    1.1585e+02    5.3162e+02 ;    C19 - C11    - N5    
    48     36     52      1    1.1911e+02    6.2099e+02 ;     N3 - C9     - N7    

[ dihedrals ] ; propers
; for gromacs 4.5 or higher, using funct 9
;    i      j      k      l   func   phase     kd      pn
     1     27     28     29      9     0.00   0.00000   0 ;    H01-    C1-    C2-    C3
     1     27     28     54      9     0.00   0.00000   0 ;    H01-    C1-    C2-    N8
     2     27     28     29      9     0.00   0.00000   0 ;    H02-    C1-    C2-    C3
     2     27     28     54      9     0.00   0.00000   0 ;    H02-    C1-    C2-    N8
     3     27     28     29      9     0.00   0.00000   0 ;    H03-    C1-    C2-    C3
     3     27     28     54      9     0.00   0.00000   0 ;    H03-    C1-    C2-    N8
     4     29     28     27      9   180.00  16.73600   2 ;    H04-    C3-    C2-    C1
     4     29     28     54      9   180.00  16.73600   2 ;    H04-    C3-    C2-    N8
     4     29     30     34      9   180.00  16.73600   2 ;    H04-    C3-    C4-    N1
     4     29     30     53      9   180.00  16.73600   2 ;    H04-    C3-    C4-    S1
     5     32     33     35      9   180.00  15.16700   2 ;    H05-    C6-    C7-    C8
     5     32     33     36      9   180.00  15.16700   2 ;    H05-    C6-    C7-    C9
     5     32     43     31      9   180.00  20.08320   2 ;    H05-    C6-    N2-    C5
     6     34     30     29      9   180.00   4.39320   2 ;    H06-    N1-    C4-    C3
     6     34     30     53      9   180.00   4.39320   2 ;    H06-    N1-    C4-    S1
     6     34     31     43      9   180.00   4.39320   2 ;    H06-    N1-    C5-    N2
     6     34     31     52      9   180.00   4.39320   2 ;    H06-    N1-    C5-    N7
     7     35     33     32      9     0.00   0.00000   0 ;    H07-    C8-    C7-    C6
     7     35     33     36      9     0.00   0.00000   0 ;    H07-    C8-    C7-    C9
     8     35     33     32      9     0.00   0.00000   0 ;    H08-    C8-    C7-    C6
     8     35     33     36      9     0.00   0.00000   0 ;    H08-    C8-    C7-    C9
     9     35     33     32      9     0.00   0.00000   0 ;    H09-    C8-    C7-    C6
     9     35     33     36      9     0.00   0.00000   0 ;    H09-    C8-    C7-    C9
    10     37     38     39      9     0.00   0.65084   3 ;    H10-   C10-   C11-   C12
    10     37     38     47      9     0.00   0.65084   3 ;    H10-   C10-   C11-   C19
    10     37     38     50      9     0.00   0.65084   3 ;    H10-   C10-   C11-    N5
    10     37     48     36      9     0.00   1.38909   2 ;    H10-   C10-    N3-    C9
    10     37     48     47      9     0.00   0.00000   0 ;    H10-   C10-    N3-   C19
    11     37     38     39      9     0.00   0.65084   3 ;    H11-   C10-   C11-   C12
    11     37     38     47      9     0.00   0.65084   3 ;    H11-   C10-   C11-   C19
    11     37     38     50      9     0.00   0.65084   3 ;    H11-   C10-   C11-    N5
    11     37     48     36      9     0.00   1.38909   2 ;    H11-   C10-    N3-    C9
    11     37     48     47      9     0.00   0.00000   0 ;    H11-   C10-    N3-   C19
    12     39     38     37      9     0.00   0.54392   3 ;    H12-   C12-   C11-   C10
    12     39     38     47      9     0.00   0.54392   3 ;    H12-   C12-   C11-   C19
    12     39     38     50      9     0.00   0.41840   3 ;    H12-   C12-   C11-    N5
    12     39     40     49      9   180.00   0.00000   2 ;    H12-   C12-   C13-    N4
    13     39     38     37      9     0.00   0.54392   3 ;    H13-   C12-   C11-   C10
    13     39     38     47      9     0.00   0.54392   3 ;    H13-   C12-   C11-   C19
    13     39     38     50      9     0.00   0.41840   3 ;    H13-   C12-   C11-    N5
    13     39     40     49      9   180.00   0.00000   2 ;    H13-   C12-   C13-    N4
    14     41     42     16      9     0.00   0.65084   3 ;    H14-   C14-   C15-   H16
    14     41     42     17      9     0.00   0.65084   3 ;    H14-   C14-   C15-   H17
    14     41     42     51      9     0.00   0.65084   3 ;    H14-   C14-   C15-    N6
    14     41     50     38      9     0.00   1.25520   3 ;    H14-   C14-    N5-   C11
    14     41     50     46      9     0.00   0.94140   3 ;    H14-   C14-    N5-   C18
    15     41     42     16      9     0.00   0.65084   3 ;    H15-   C14-   C15-   H16
    15     41     42     17      9     0.00   0.65084   3 ;    H15-   C14-   C15-   H17
    15     41     42     51      9     0.00   0.65084   3 ;    H15-   C14-   C15-    N6
    15     41     50     38      9     0.00   1.25520   3 ;    H15-   C14-    N5-   C11
    15     41     50     46      9     0.00   0.94140   3 ;    H15-   C14-    N5-   C18
    16     42     41     50      9     0.00   0.65084   3 ;    H16-   C15-   C14-    N5
    16     42     51     44      9     0.00   0.94140   3 ;    H16-   C15-    N6-   C16
    16     42     51     45      9     0.00   0.94140   3 ;    H16-   C15-    N6-   C17
    17     42     41     50      9     0.00   0.65084   3 ;    H17-   C15-   C14-    N5
    17     42     51     44      9     0.00   0.94140   3 ;    H17-   C15-    N6-   C16
    17     42     51     45      9     0.00   0.94140   3 ;    H17-   C15-    N6-   C17
    18     44     51     42      9     0.00   0.94140   3 ;    H18-   C16-    N6-   C15
    18     44     51     45      9     0.00   0.94140   3 ;    H18-   C16-    N6-   C17
    19     44     51     42      9     0.00   0.94140   3 ;    H19-   C16-    N6-   C15
    19     44     51     45      9     0.00   0.94140   3 ;    H19-   C16-    N6-   C17
    20     44     51     42      9     0.00   0.94140   3 ;    H20-   C16-    N6-   C15
    20     44     51     45      9     0.00   0.94140   3 ;    H20-   C16-    N6-   C17
    21     45     46     23      9     0.00   0.65084   3 ;    H21-   C17-   C18-   H23
    21     45     46     24      9     0.00   0.65084   3 ;    H21-   C17-   C18-   H24
    21     45     46     50      9     0.00   0.65084   3 ;    H21-   C17-   C18-    N5
    21     45     51     42      9     0.00   0.94140   3 ;    H21-   C17-    N6-   C15
    21     45     51     44      9     0.00   0.94140   3 ;    H21-   C17-    N6-   C16
    22     45     46     23      9     0.00   0.65084   3 ;    H22-   C17-   C18-   H23
    22     45     46     24      9     0.00   0.65084   3 ;    H22-   C17-   C18-   H24
    22     45     46     50      9     0.00   0.65084   3 ;    H22-   C17-   C18-    N5
    22     45     51     42      9     0.00   0.94140   3 ;    H22-   C17-    N6-   C15
    22     45     51     44      9     0.00   0.94140   3 ;    H22-   C17-    N6-   C16
    23     46     45     51      9     0.00   0.65084   3 ;    H23-   C18-   C17-    N6
    23     46     50     38      9     0.00   1.25520   3 ;    H23-   C18-    N5-   C11
    23     46     50     41      9     0.00   0.94140   3 ;    H23-   C18-    N5-   C14
    24     46     45     51      9     0.00   0.65084   3 ;    H24-   C18-   C17-    N6
    24     46     50     38      9     0.00   1.25520   3 ;    H24-   C18-    N5-   C11
    24     46     50     41      9     0.00   0.94140   3 ;    H24-   C18-    N5-   C14
    25     47     38     37      9     0.00   0.65084   3 ;    H25-   C19-   C11-   C10
    25     47     38     39      9     0.00   0.65084   3 ;    H25-   C19-   C11-   C12
    25     47     38     50      9     0.00   0.65084   3 ;    H25-   C19-   C11-    N5
    25     47     48     36      9     0.00   1.38909   2 ;    H25-   C19-    N3-    C9
    25     47     48     37      9     0.00   0.00000   0 ;    H25-   C19-    N3-   C10
    26     47     38     37      9     0.00   0.65084   3 ;    H26-   C19-   C11-   C10
    26     47     38     39      9     0.00   0.65084   3 ;    H26-   C19-   C11-   C12
    26     47     38     50      9     0.00   0.65084   3 ;    H26-   C19-   C11-    N5
    26     47     48     36      9     0.00   1.38909   2 ;    H26-   C19-    N3-    C9
    26     47     48     37      9     0.00   0.00000   0 ;    H26-   C19-    N3-   C10
    27     28     29     30      9   180.00  16.73600   2 ;     C1-    C2-    C3-    C4
    27     28     54     53      9   180.00  19.87400   2 ;     C1-    C2-    N8-    S1
    28     29     30     34      9   180.00  16.73600   2 ;     C2-    C3-    C4-    N1
    28     29     30     53      9   180.00  16.73600   2 ;     C2-    C3-    C4-    S1
    28     54     53     30      9   180.00  20.08320   2 ;     C2-    N8-    S1-    C4
    29     28     54     53      9   180.00  19.87400   2 ;     C3-    C2-    N8-    S1
    29     30     34     31      9   180.00   4.39320   2 ;     C3-    C4-    N1-    C5
    29     30     53     54      9   180.00   4.60240   2 ;     C3-    C4-    S1-    N8
    30     29     28     54      9   180.00  16.73600   2 ;     C4-    C3-    C2-    N8
    30     34     31     43      9   180.00   4.39320   2 ;     C4-    N1-    C5-    N2
    30     34     31     52      9   180.00   4.39320   2 ;     C4-    N1-    C5-    N7
    31     34     30     53      9   180.00   4.39320   2 ;     C5-    N1-    C4-    S1
    31     43     32     33      9   180.00  20.08320   2 ;     C5-    N2-    C6-    C7
    31     52     36     33      9   180.00  20.08320   2 ;     C5-    N7-    C9-    C7
    31     52     36     48      9   180.00  20.08320   2 ;     C5-    N7-    C9-    N3
    32     33     36     48      9   180.00  15.16700   2 ;     C6-    C7-    C9-    N3
    32     33     36     52      9   180.00  15.16700   2 ;     C6-    C7-    C9-    N7
    32     43     31     34      9   180.00  20.08320   2 ;     C6-    N2-    C5-    N1
    32     43     31     52      9   180.00  20.08320   2 ;     C6-    N2-    C5-    N7
    33     36     48     37      9   180.00   4.39320   2 ;     C7-    C9-    N3-   C10
    33     36     48     47      9   180.00   4.39320   2 ;     C7-    C9-    N3-   C19
    34     30     53     54      9   180.00   4.60240   2 ;     N1-    C4-    S1-    N8
    34     31     52     36      9   180.00  20.08320   2 ;     N1-    C5-    N7-    C9
    35     33     32     43      9   180.00  15.16700   2 ;     C8-    C7-    C6-    N2
    35     33     36     48      9   180.00  15.16700   2 ;     C8-    C7-    C9-    N3
    35     33     36     52      9   180.00  15.16700   2 ;     C8-    C7-    C9-    N7
    36     33     32     43      9   180.00  15.16700   2 ;     C9-    C7-    C6-    N2
    36     48     37     38      9     0.00   0.00000   0 ;     C9-    N3-   C10-   C11
    36     48     47     38      9     0.00   0.00000   0 ;     C9-    N3-   C19-   C11
    36     52     31     43      9   180.00  20.08320   2 ;     C9-    N7-    C5-    N2
    37     38     39     40      9     0.00   0.65084   3 ;    C10-   C11-   C12-   C13
    37     38     47     48      9     0.00   0.65084   3 ;    C10-   C11-   C19-    N3
    37     38     50     41      9     0.00   3.05432   3 ;    C10-   C11-    N5-   C14
    37     38     50     46      9     0.00   3.05432   3 ;    C10-   C11-    N5-   C18
    37     48     36     52      9   180.00   4.39320   2 ;    C10-    N3-    C9-    N7
    37     48     47     38      9     0.00   0.00000   0 ;    C10-    N3-   C19-   C11
    38     37     48     47      9     0.00   0.00000   0 ;    C11-   C10-    N3-   C19
    38     39     40     49      9   180.00   0.00000   2 ;    C11-   C12-   C13-    N4
    38     50     41     42      9     0.00   1.25520   3 ;    C11-    N5-   C14-   C15
    38     50     46     45      9     0.00   1.25520   3 ;    C11-    N5-   C18-   C17
    39     38     37     48      9     0.00   0.65084   3 ;    C12-   C11-   C10-    N3
    39     38     47     48      9     0.00   0.65084   3 ;    C12-   C11-   C19-    N3
    39     38     50     41      9     0.00   3.05432   3 ;    C12-   C11-    N5-   C14
    39     38     50     46      9     0.00   3.05432   3 ;    C12-   C11-    N5-   C18
    40     39     38     47      9     0.00   0.65084   3 ;    C13-   C12-   C11-   C19
    40     39     38     50      9     0.00   0.65084   3 ;    C13-   C12-   C11-    N5
    41     42     51     44      9     0.00   3.05432   3 ;    C14-   C15-    N6-   C16
    41     42     51     45      9     0.00   3.05432   3 ;    C14-   C15-    N6-   C17
    41     50     38     47      9     0.00   3.05432   3 ;    C14-    N5-   C11-   C19
    41     50     46     45      9     0.00   3.05432   3 ;    C14-    N5-   C18-   C17
    42     41     50     46      9     0.00   3.05432   3 ;    C15-   C14-    N5-   C18
    42     51     45     46      9     0.00   3.05432   3 ;    C15-    N6-   C17-   C18
    44     51     45     46      9     0.00   3.05432   3 ;    C16-    N6-   C17-   C18
    46     50     38     47      9     0.00   3.05432   3 ;    C18-    N5-   C11-   C19
    47     38     37     48      9     0.00   0.65084   3 ;    C19-   C11-   C10-    N3
    47     48     36     52      9   180.00   4.39320   2 ;    C19-    N3-    C9-    N7
    48     37     38     50      9     0.00   0.65084   3 ;     N3-   C10-   C11-    N5
    48     47     38     50      9     0.00   0.65084   3 ;     N3-   C19-   C11-    N5
    50     41     42     51      9     0.00   0.65084   3 ;     N5-   C14-   C15-    N6
    50     46     45     51      9     0.00   0.65084   3 ;     N5-   C18-   C17-    N6

[ dihedrals ] ; impropers
; treated as propers in GROMACS to use correct AMBER analytical function
;    i      j      k      l   func   phase     kd      pn
    27     29     28     54      4   180.00   4.60240   2 ;     C1-    C3-    C2-    N8
    28     30     29      4      4   180.00   4.60240   2 ;     C2-    C4-    C3-   H04
    29     34     30     53      4   180.00   4.60240   2 ;     C3-    N1-    C4-    S1
    31     30     34      6      4   180.00   4.60240   2 ;     C5-    C4-    N1-   H06
    32     36     33     35      4   180.00   4.60240   2 ;     C6-    C9-    C7-    C8
    33      5     32     43      4   180.00   4.60240   2 ;     C7-   H05-    C6-    N2
    33     52     36     48      4   180.00   4.60240   2 ;     C7-    N7-    C9-    N3
    36     37     48     47      4   180.00   4.60240   2 ;     C9-   C10-    N3-   C19
    43     52     31     34      4   180.00  43.93200   2 ;     N2-    N7-    C5-    N1
