%VERSION  VERSION_STAMP = V0001.000  DATE = 10/21/25  23:38:27                  
%FLAG TITLE                                                                     
%FORMAT(20a4)                                                                   
MOL                                                                             
%FLAG POINTERS                                                                  
%FORMAT(10I8)                                                                   
      55      16      27      31      62      45     101      66       0       0
     309       1      31      45      66      31      57      21      21       0
       0       0       0       0       0       0       0       0      55       0
       0
%FLAG ATOM_NAME                                                                 
%FORMAT(20a4)                                                                   
C1  C2  C3  C4  C5  C6  C7  N1  C8  C9  C10 C11 C12 C13 C14 C15 N2  C16 C17 C18 
C19 N3  N4  N5  N6  N7  S1  N8  H1  H2  H3  H4  H5  H6  H7  H8  H9  H10 H11 H12 
H13 H14 H15 H16 H17 H18 H19 H20 H21 H22 H23 H24 H25 H26 H27 
%FLAG CHARGE                                                                    
%FORMAT(5E16.8)                                                                 
 -3.65847295E+00  7.14474516E+00 -5.90138297E+00  1.17470057E+00  1.26713683E+01
  3.13336093E+00 -1.75036125E+00 -6.88722762E+00 -5.07622256E+00  8.37467752E+00
  4.80704274E-02  2.15305586E+00 -3.97191473E-01  4.40121390E+00 -8.30007543E-01
 -6.63546832E-01 -1.22685644E+01 -4.29554278E+00 -6.63546832E-01 -8.30007543E-01
  4.80704274E-02 -9.35977506E+00 -7.18319422E+00 -5.15907935E+00 -2.24019490E+00
 -7.82988542E+00  1.58153164E+00 -8.91223537E+00  3.09673411E+00  3.04254099E+00
  6.15485516E+00  2.05676922E+00  2.05676922E+00  1.33429147E+00  1.33429147E+00
  1.54636260E+00  1.54636260E+00  2.34885447E+00  2.34885447E+00  2.34885447E+00
  2.34885447E+00  1.54636260E+00  1.54636260E+00  2.05676922E+00  2.05676922E+00
  5.62145199E+00  2.76135268E+00  2.76135268E+00  2.76135268E+00  1.58708944E+00
  1.58708944E+00  1.58708944E+00  1.32016919E+00  1.32016919E+00  1.32016919E+00
%FLAG ATOMIC_NUMBER                                                             
%FORMAT(10I8)                                                                   
       6       6       6       6       6       6       6       7       6       6
       6       6       6       6       6       6       7       6       6       6
       6       7       7       7       7       7      16       7       1       1
       1       1       1       1       1       1       1       1       1       1
       1       1       1       1       1       1       1       1       1       1
       1       1       1       1       1
%FLAG MASS                                                                      
%FORMAT(5E16.8)                                                                 
  1.20100000E+01  1.20100000E+01  1.20100000E+01  1.20100000E+01  1.20100000E+01
  1.20100000E+01  1.20100000E+01  1.40100000E+01  1.20100000E+01  1.20100000E+01
  1.20100000E+01  1.20100000E+01  1.20100000E+01  1.20100000E+01  1.20100000E+01
  1.20100000E+01  1.40100000E+01  1.20100000E+01  1.20100000E+01  1.20100000E+01
  1.20100000E+01  1.40100000E+01  1.40100000E+01  1.40100000E+01  1.40100000E+01
  1.40100000E+01  3.20600000E+01  1.40100000E+01  1.00800000E+00  1.00800000E+00
  1.00800000E+00  1.00800000E+00  1.00800000E+00  1.00800000E+00  1.00800000E+00
  1.00800000E+00  1.00800000E+00  1.00800000E+00  1.00800000E+00  1.00800000E+00
  1.00800000E+00  1.00800000E+00  1.00800000E+00  1.00800000E+00  1.00800000E+00
  1.00800000E+00  1.00800000E+00  1.00800000E+00  1.00800000E+00  1.00800000E+00
  1.00800000E+00  1.00800000E+00  1.00800000E+00  1.00800000E+00  1.00800000E+00
%FLAG ATOM_TYPE_INDEX                                                           
%FORMAT(10I8)                                                                   
       1       2       2       2       2       2       2       3       1       2
       1       1       1       4       1       1       5       1       1       1
       1       6       7       8       9       5      10       5      11      12
      13      14      14      15      15      14      14      16      16      16
      16      14      14      14      14      13      16      16      16      15
      15      15      15      15      15
%FLAG NUMBER_EXCLUDED_ATOMS                                                     
%FORMAT(10I8)                                                                   
       9       9      10       8      10      11      11       7       8      14
      15      20      13       5      14      15       3      11      13      10
       9       6       2      15      12       1       3       4       1       1
       1       1       1       1       1       3       2       2       1       4
       3       1       1       1       1       3       2       1       1       2
       1       1       2       1       1
%FLAG NONBONDED_PARM_INDEX                                                      
%FORMAT(10I8)                                                                   
       1       2       4       7      11      16      22      29      37      46
      56      67      79      92     106     121       2       3       5       8
      12      17      23      30      38      47      57      68      80      93
     107     122       4       5       6       9      13      18      24      31
      39      48      58      69      81      94     108     123       7       8
       9      10      14      19      25      32      40      49      59      70
      82      95     109     124      11      12      13      14      15      20
      26      33      41      50      60      71      83      96     110     125
      16      17      18      19      20      21      27      34      42      51
      61      72      84      97     111     126      22      23      24      25
      26      27      28      35      43      52      62      73      85      98
     112     127      29      30      31      32      33      34      35      36
      44      53      63      74      86      99     113     128      37      38
      39      40      41      42      43      44      45      54      64      75
      87     100     114     129      46      47      48      49      50      51
      52      53      54      55      65      76      88     101     115     130
      56      57      58      59      60      61      62      63      64      65
      66      77      89     102     116     131      67      68      69      70
      71      72      73      74      75      76      77      78      90     103
     117     132      79      80      81      82      83      84      85      86
      87      88      89      90      91     104     118     133      92      93
      94      95      96      97      98      99     100     101     102     103
     104     105     119     134     106     107     108     109     110     111
     112     113     114     115     116     117     118     119     120     135
     121     122     123     124     125     126     127     128     129     130
     131     132     133     134     135     136
%FLAG RESIDUE_LABEL                                                             
%FORMAT(20a4)                                                                   
MOL 
%FLAG RESIDUE_POINTER                                                           
%FORMAT(10I8)                                                                   
       1
%FLAG BOND_FORCE_CONSTANT                                                       
%FORMAT(5E16.8)                                                                 
  2.55140000E+02  3.45250000E+02  3.22020000E+02  4.19720000E+02  3.86240000E+02
  3.64120000E+02  3.46170000E+02  2.26530000E+02  3.19920000E+02  3.86490000E+02
  3.54250000E+02  3.56820000E+02  2.43910000E+02  4.72490000E+02  3.41710000E+02
  2.13890000E+02  2.43380000E+02  3.47610000E+02  2.32490000E+02  2.53250000E+02
  2.84580000E+02  7.51250000E+02  2.26810000E+02  2.53330000E+02  3.42020000E+02
  2.16590000E+02  3.49850000E+02  2.19760000E+02  3.52860000E+02  4.31010000E+02
  3.23180000E+02
%FLAG BOND_EQUIL_VALUE                                                          
%FORMAT(5E16.8)                                                                 
  1.50020000E+00  1.09620000E+00  1.42740000E+00  1.31580000E+00  1.37300000E+00
  1.08380000E+00  1.37110000E+00  1.76220000E+00  1.39440000E+00  1.33920000E+00
  1.39860000E+00  1.08850000E+00  1.51470000E+00  1.01370000E+00  1.37490000E+00
  1.55780000E+00  1.47830000E+00  1.09460000E+00  1.53030000E+00  1.46580000E+00
  1.46560000E+00  1.16190000E+00  1.53840000E+00  1.46570000E+00  1.09840000E+00
  1.51560000E+00  1.09310000E+00  1.51090000E+00  1.09110000E+00  1.03380000E+00
  1.66590000E+00
%FLAG ANGLE_FORCE_CONSTANT                                                      
%FORMAT(5E16.8)                                                                 
  6.00800000E+01  6.55300000E+01  4.40400000E+01  6.37700000E+01  4.42000000E+01
  8.80200000E+01  6.70300000E+01  6.81500000E+01  6.58400000E+01  4.53000000E+01
  7.65600000E+01  5.85500000E+01  1.08530000E+02  5.74600000E+01  8.31500000E+01
  6.07400000E+01  6.36700000E+01  6.81700000E+01  4.48000000E+01  4.36100000E+01
  6.78000000E+01  6.76300000E+01  7.42500000E+01  7.47400000E+01  5.80800000E+01
  6.66000000E+01  6.35300000E+01  8.44400000E+01  7.24100000E+01  4.20400000E+01
  6.68000000E+01  4.32400000E+01  7.78300000E+01  6.57000000E+01  5.74200000E+01
  4.51300000E+01  6.43500000E+01  4.29100000E+01  7.81900000E+01  6.54200000E+01
  4.32800000E+01  7.50600000E+01  7.55500000E+01  5.49800000E+01  7.27600000E+01
  5.01000000E+01  5.52900000E+01  7.42100000E+01  4.66200000E+01  4.78500000E+01
  4.71000000E+01  4.68800000E+01  3.55700000E+01  3.58000000E+01  3.57700000E+01
  3.57700000E+01  3.56300000E+01
%FLAG ANGLE_EQUIL_VALUE                                                         
%FORMAT(5E16.8)                                                                 
  2.14256711E+00  2.16194027E+00  1.92614619E+00  2.08025883E+00  2.08933454E+00
  1.88146574E+00  2.19998847E+00  2.14134538E+00  1.97833156E+00  2.11883062E+00
  2.26369301E+00  1.98688367E+00  1.64253006E+00  2.00241711E+00  2.04622489E+00
  2.10888224E+00  2.09474507E+00  2.14570870E+00  2.09998106E+00  1.93085858E+00
  2.11708529E+00  2.11394370E+00  2.04500316E+00  2.21988523E+00  2.06472539E+00
  1.54356985E+00  2.02196481E+00  1.62856742E+00  1.54496612E+00  1.97518996E+00
  1.92492446E+00  1.92841512E+00  1.94970814E+00  1.92911325E+00  3.11820658E+00
  1.91026369E+00  1.93836350E+00  1.94045789E+00  1.93208031E+00  1.93452377E+00
  1.90555129E+00  1.96663784E+00  1.93539644E+00  1.86994656E+00  2.22180509E+00
  2.02493187E+00  1.86017271E+00  2.07886256E+00  1.98793087E+00  1.91340528E+00
  1.86488511E+00  1.89350852E+00  1.91008915E+00  1.88024401E+00  1.87622975E+00
  1.89420665E+00  1.91619781E+00
%FLAG DIHEDRAL_FORCE_CONSTANT                                                   
%FORMAT(5E16.8)                                                                 
  4.00000000E+00  4.75000000E+00  4.80000000E+00  0.00000000E+00  1.05000000E+00
  1.10000000E+00  0.00000000E+00  3.62500000E+00  0.00000000E+00  3.32000000E-01
  1.55555556E-01  1.30000000E-01  7.30000000E-01  0.00000000E+00  3.00000000E-01
  1.56000000E-01  2.25000000E-01  1.00000000E-01  1.09000000E-01  1.10000000E+00
  1.05000000E+01
%FLAG DIHEDRAL_PERIODICITY                                                      
%FORMAT(5E16.8)                                                                 
  2.00000000E+00  2.00000000E+00  2.00000000E+00  3.00000000E+00  2.00000000E+00
  2.00000000E+00  1.00000000E+00  2.00000000E+00  2.00000000E+00  2.00000000E+00
  3.00000000E+00  3.00000000E+00  3.00000000E+00  2.00000000E+00  3.00000000E+00
  3.00000000E+00  3.00000000E+00  3.00000000E+00  3.00000000E+00  2.00000000E+00
  2.00000000E+00
%FLAG DIHEDRAL_PHASE                                                            
%FORMAT(5E16.8)                                                                 
  3.14159400E+00  3.14159400E+00  3.14159400E+00  0.00000000E+00  3.14159400E+00
  3.14159400E+00  0.00000000E+00  3.14159400E+00  0.00000000E+00  0.00000000E+00
  0.00000000E+00  0.00000000E+00  0.00000000E+00  3.14159400E+00  0.00000000E+00
  0.00000000E+00  0.00000000E+00  0.00000000E+00  0.00000000E+00  3.14159400E+00
  3.14159400E+00
%FLAG SCEE_SCALE_FACTOR                                                         
%FORMAT(5E16.8)                                                                 
  1.20000000E+00  1.20000000E+00  1.20000000E+00  1.20000000E+00  1.20000000E+00
  1.20000000E+00  1.20000000E+00  1.20000000E+00  1.20000000E+00  1.20000000E+00
  1.20000000E+00  1.20000000E+00  1.20000000E+00  1.20000000E+00  1.20000000E+00
  1.20000000E+00  1.20000000E+00  1.20000000E+00  1.20000000E+00  0.00000000E+00
  0.00000000E+00
%FLAG SCNB_SCALE_FACTOR                                                         
%FORMAT(5E16.8)                                                                 
  2.00000000E+00  2.00000000E+00  2.00000000E+00  2.00000000E+00  2.00000000E+00
  2.00000000E+00  2.00000000E+00  2.00000000E+00  2.00000000E+00  2.00000000E+00
  2.00000000E+00  2.00000000E+00  2.00000000E+00  2.00000000E+00  2.00000000E+00
  2.00000000E+00  2.00000000E+00  2.00000000E+00  2.00000000E+00  0.00000000E+00
  0.00000000E+00
%FLAG SOLTY                                                                     
%FORMAT(5E16.8)                                                                 
  0.00000000E+00  0.00000000E+00  0.00000000E+00  0.00000000E+00  0.00000000E+00
  0.00000000E+00  0.00000000E+00  0.00000000E+00  0.00000000E+00  0.00000000E+00
  0.00000000E+00  0.00000000E+00  0.00000000E+00  0.00000000E+00  0.00000000E+00
  0.00000000E+00  0.00000000E+00  0.00000000E+00  0.00000000E+00  0.00000000E+00
  0.00000000E+00
%FLAG LENNARD_JONES_ACOEF                                                       
%FORMAT(5E16.8)                                                                 
  1.02073671E+06  8.43969952E+05  6.96551276E+05  9.89136215E+05  8.15700858E+05
  9.54886922E+05  1.43239677E+06  1.18640578E+06  1.39155377E+06  2.00671338E+06
  9.31115275E+05  7.69642101E+05  9.01905150E+05  1.30700124E+06  8.49322032E+05
  9.93125065E+05  8.17329084E+05  9.55926083E+05  1.39989391E+06  9.05243612E+05
  9.54790629E+05  8.25619280E+05  6.80770393E+05  7.96888554E+05  1.16165080E+06
  7.52793431E+05  7.97644644E+05  6.65027384E+05  8.59569453E+05  7.10207765E+05
  8.32102309E+05  1.20705609E+06  7.84008042E+05  8.34792752E+05  6.94511233E+05
  7.23647490E+05  1.08339010E+06  8.78080588E+05  1.01998259E+06  1.54971013E+06
  9.85071815E+05  1.00141202E+06  8.50200653E+05  9.05221274E+05  9.21656095E+05
  2.09089895E+06  1.73376823E+06  2.03458349E+06  2.92607619E+06  1.90820499E+06
  2.04935397E+06  1.69857439E+06  1.76274168E+06  2.29022351E+06  4.26366419E+06
  9.27554496E+04  7.52549148E+04  8.74566229E+04  1.32549375E+05  8.43518904E+04
  8.59636060E+04  7.29041169E+04  7.75325560E+04  7.98194249E+04  1.95762765E+05
  6.90855956E+03  7.75673747E+04  6.27751680E+04  7.28718235E+04  1.11111404E+05
  7.05112106E+04  7.14263282E+04  6.07357264E+04  6.47735754E+04  6.49071593E+04
  1.64354276E+05  5.62610481E+03  4.56536476E+03  2.23577481E+03  1.71458823E+03
  1.94284817E+03  3.37137075E+03  2.01475241E+03  1.79157166E+03  1.61327254E+03
  1.82809059E+03  1.00942006E+03  5.15374979E+03  9.04434904E+01  6.76796831E+01
  1.34728399E-01  6.97998263E+04  5.63013422E+04  6.52595638E+04  1.00303788E+05
  6.34160397E+04  6.37258620E+04  5.43787653E+04  5.82112737E+04  5.62691404E+04
  1.48672098E+05  4.88692384E+03  3.94664935E+03  5.24570081E+01  3.39005767E+03
  1.00235148E+05  8.12662403E+04  9.44129241E+04  1.43334551E+05  9.11435380E+04
  9.27277603E+04  7.86991059E+04  8.37616145E+04  8.55808446E+04  2.11783234E+05
  7.41026906E+03  6.02863188E+03  9.47421632E+01  5.22955465E+03  7.94617769E+03
  2.19657590E+04  1.74110867E+04  2.00240999E+04  3.20967943E+04  1.99003866E+04
  1.91715719E+04  1.66653804E+04  1.81940036E+04  1.45326307E+04  4.80874647E+04
  1.27542632E+03  1.00402713E+03  7.30589786E+00  8.33358592E+02  1.35510742E+03
  1.70079100E+02
%FLAG LENNARD_JONES_BCOEF                                                       
%FORMAT(5E16.8)                                                                 
  6.63431737E+02  5.90251928E+02  5.24668528E+02  7.14570130E+02  6.34916791E+02
  7.68192761E+02  8.66911122E+02  7.71958727E+02  9.34911141E+02  1.13185062E+03
  6.12468585E+02  5.44830041E+02  6.59538202E+02  8.00430491E+02  5.65406768E+02
  7.77671659E+02  6.90283231E+02  8.34802781E+02  1.01846332E+03  7.17661669E+02
  9.06156687E+02  5.99411656E+02  5.32561965E+02  6.44334664E+02  7.84289859E+02
  5.53242961E+02  7.00156173E+02  5.40444287E+02  5.75038595E+02  5.11427129E+02
  6.19045117E+02  7.51664026E+02  5.30834917E+02  6.73442883E+02  5.19268574E+02
  4.98353106E+02  1.50664821E+03  1.32715352E+03  1.59953313E+03  1.98768792E+03
  1.38866053E+03  1.72139587E+03  1.34083717E+03  1.30081021E+03  3.06326052E+03
  1.20800124E+03  1.07629402E+03  1.30381522E+03  1.57633023E+03  1.11546536E+03
  1.42122969E+03  1.09380282E+03  1.04764062E+03  2.78689013E+03  2.19459223E+03
  1.24325688E+02  1.09570372E+02  1.32088478E+02  1.63939471E+02  1.14599119E+02
  1.42233990E+02  1.10729433E+02  1.07361937E+02  2.54229244E+02  2.29782888E+02
  2.10929191E+01  1.13692208E+02  1.00073628E+02  1.20572538E+02  1.50097689E+02
  1.04776275E+02  1.29650812E+02  1.01066951E+02  9.81312253E+01  2.29254310E+02
  2.10544132E+02  1.90347353E+01  1.71467049E+01  1.71355763E+01  1.46824710E+01
  1.74775900E+01  2.32108730E+01  1.57231024E+01  1.82287422E+01  1.46229317E+01
  1.46352678E+01  2.53805311E+01  3.30984635E+01  2.14252117E+00  1.85338491E+00
  7.34107347E-02  1.14981426E+02  1.01040256E+02  1.21646616E+02  1.52041700E+02
  1.05935811E+02  1.30560951E+02  1.01955600E+02  9.91793374E+01  2.27570369E+02
  2.13489607E+02  1.89134207E+01  1.69967767E+01  1.73959275E+00  1.67944276E+01
  1.37787728E+02  1.21392023E+02  1.46316625E+02  1.81752124E+02  1.27000718E+02
  1.57492664E+02  1.22653886E+02  1.18970742E+02  2.80652463E+02  2.54804909E+02
  2.32899892E+01  2.10068861E+01  2.33785449E+00  2.08590256E+01  2.57122925E+01
  6.45020662E+01  5.61885732E+01  6.73836375E+01  8.60072141E+01  5.93436142E+01
  7.16117531E+01  5.64422126E+01  5.54474770E+01  1.15651879E+02  1.21416565E+02
  9.66228818E+00  8.57284598E+00  6.49206153E-01  8.32679019E+00  1.06181419E+01
  3.76172582E+00
%FLAG BONDS_INC_HYDROGEN                                                        
%FORMAT(10I8)                                                                   
       0     156       2       0     159       2       0     162       2       6
      84       6      15      87      12      21      90      14      24     147
       2      24     150       2      24     153       2      30      93      18
      30      96      18      36      99       2      36     102       2      42
     105      25      42     108      25      45     111      27      45     114
      27      51     138      29      51     141      29      51     144      29
      54     117      27      54     120      27      57     123      25      57
     126      25      60     129      18      60     132      18      72     135
      30
%FLAG BONDS_WITHOUT_HYDROGEN                                                    
%FORMAT(10I8)                                                                   
       0       3       1       3       6       3       3      81       4       6
       9       5       9      21       7       9      78       8      12      21
       9      12      48      10      12      75      10      15      18      11
      15      48      10      18      24      13      18      27      11      27
      63      15      27      75      10      30      33      16      30      63
      17      33      36      19      33      60      16      33      69      20
      36      39      21      39      66      22      42      45      23      42
      69      24      45      72      26      51      72      28      54      57
      23      54      72      26      57      69      24      60      63      17
      78      81      31
%FLAG ANGLES_INC_HYDROGEN                                                       
%FORMAT(10I8)                                                                   
       3       0     156       3       3       0     159       3       3       0
     162       3       3       6      84       5       9       6      84      10
       9      21      90      12      12      21      90      14      18      15
      87      19      18      24     147      20      18      24     150      20
      18      24     153      20      33      30      93      30      33      30
      96      30      33      36      99      32      33      36     102      32
      33      60     129      30      33      60     132      30      39      36
      99      36      39      36     102      36      42      45     111      38
      42      45     114      38      45      42     105      41      45      42
     108      41      45      72     135      44      48      15      87      46
      51      72     135      47      54      57     123      41      54      57
     126      41      54      72     135      44      57      54     117      38
      57      54     120      38      63      30      93      49      63      30
      96      49      63      60     129      49      63      60     132      49
      69      42     105      50      69      42     108      50      69      57
     123      50      69      57     126      50      72      45     111      51
      72      45     114      51      72      51     138      52      72      51
     141      52      72      51     144      52      72      54     117      51
      72      54     120      51      93      30      96      53      99      36
     102      54     105      42     108      55     111      45     114      56
     117      54     120      56     123      57     126      55     129      60
     132      53     138      51     141      57     138      51     144      57
     141      51     144      57     147      24     150      54     147      24
     153      54     150      24     153      54     156       0     159      54
     156       0     162      54     159       0     162      54
%FLAG ANGLES_WITHOUT_HYDROGEN                                                   
%FORMAT(10I8)                                                                   
       0       3       6       1       0       3      81       2       3       6
       9       4       3      81      78       6       6       3      81       7
       6       9      21       8       6       9      78       9       9      21
      12      11       9      78      81      13      12      48      15      15
      12      75      27      15      15      18      24      16      15      18
      27      17      18      15      48      18      18      27      63      21
      18      27      75      18      21       9      78      22      21      12
      48      23      21      12      75      23      24      18      27      16
      27      63      30      24      27      63      60      24      30      33
      36      25      30      33      60      26      30      33      69      27
      30      63      60      28      33      30      63      29      33      36
      39      31      33      60      63      29      33      69      42      33
      33      69      57      33      36      33      60      25      36      33
      69      34      36      39      66      35      42      45      72      37
      42      69      57      39      45      42      69      40      45      72
      51      42      45      72      54      43      48      12      75      45
      51      72      54      42      54      57      69      40      57      54
      72      37      60      33      69      27      63      27      75      48
%FLAG DIHEDRALS_INC_HYDROGEN                                                    
%FORMAT(10I8)                                                                   
       0       3       6      84       1     156       0       3       6       4
     159       0       3       6       4     162       0       3       6       4
       6       9      21      90       5      12      48      15      87       3
      15      18      24     147       7      15      18      24     150       7
      15      18      24     153       7      21       9       6      84       1
      24      18      15      87       8      27      18      15      87       8
      27      18      24     147       7      27      18      24     150       7
      27      18      24     153       7      27      63      30      93      10
      27      63      30      96      10      27      63      60     129      10
      27      63      60     132      10      30      33      36      99      12
      30      33      36     102      12      30      33      60     129      11
      30      33      60     132      11      30      63     -60     129       9
      30      63     -60     132       9      33      69      42     105      15
      33      69      42     108      15      33      69      57     123      15
      33      69      57     126      15      36      33      30      93      11
      36      33      30      96      11      36      33      60     129      11
      36      33      60     132      11      42      45      72     135      11
      42      69      57     123      17      42      69      57     126      17
      45      72      51     138      11      45      72      51     141      11
      45      72      51     144      11      45      72      54     117      11
      45      72      54     120      11      48      12      21      90       5
      51      72      45     111      11      51      72      45     114      11
      51      72      54     117      11      51      72      54     120      11
      54      72      45     111      11      54      72      45     114      11
      54      72      51     138      11      54      72      51     141      11
      54      72      51     144      11      57      54      72     135      11
      57      69      42     105      17      57      69      42     108      17
      60      33      30      93      11      60      33      30      96      11
      60      33      36      99      12      60      33      36     102      12
      60      63     -30      93       9      60      63     -30      96       9
      66      39      36      99      14      66      39      36     102      14
      69      33      30      93      11      69      33      30      96      11
      69      33      36      99      18      69      33      36     102      18
      69      33      60     129      11      69      33      60     132      11
      69      42      45     111      11      69      42      45     114      11
      69      57      54     117      11      69      57      54     120      11
      72      45      42     105      11      72      45      42     108      11
      72      54      57     123      11      72      54      57     126      11
      75      12      21      90       5      78       9       6      84       1
      78       9      21      90       5     156       0       3      81       4
     159       0       3      81       4     162       0       3      81       4
      81       3       6      84       1     105      42      45     111      11
     105      42      45     114      11     108      42      45     111      11
     108      42      45     114      11     111      45      72     135      19
     114      45      72     135      19     117      54      57     123      11
     117      54      57     126      11     117      54      72     135      19
     120      54      57     123      11     120      54      57     126      11
     120      54      72     135      19     135      72      51     138      19
     135      72      51     141      19     135      72      51     144      19
       3       9      -6     -84      20      18      87     -15     -48      20
      12       9     -21     -90      20
%FLAG DIHEDRALS_WITHOUT_HYDROGEN                                                
%FORMAT(10I8)                                                                   
       0       3       6       9       1       0       3      81      78       2
       3       6       9      21       1       3       6      -9      78       1
       3      81     -78       9       3       6       3     -81      78       2
       6       9      21      12       5       6       9     -78      81       6
       9       6      -3      81       1       9      21      12      48       5
       9      21      12      75       5      12      21       9      78       5
      12      48      15      18       3      12      75     -27      18       3
      12      75      27      63       3      15      18      27      63       8
      15      18      27      75       8      15      48      12      21       3
      15      48     -12      75       3      18      27      63      30       5
      18      27      63      60       5      21       9      78      81       6
      21      12      75      27       3      24      18      15      48       8
      24      18      27      63       8      24      18      27      75       8
      27      18      15      48       8      27      63      30      33       9
      27      63     -60      33       9      27      75     -12      48       3
      30      33      36      39      11      30      33     -60      63      11
      30      33      69      42      13      30      33      69      57      13
      30      63      27      75       5      30      63     -60      33       9
      33      30     -63      60       9      33      36      39      66      14
      33      69      42      45      15      33      69      57      54      15
      36      33      30      63      11      36      33     -60      63      11
      36      33      69      42      13      36      33      69      57      13
      39      36      33      60      11      39      36      33      69      11
      42      45      72      51      16      42      45      72      54      16
      42      69      33      60      13      42      69     -57      54      13
      45      42      69      57      13      45      72     -54      57      16
      51      72      54      57      16      57      69      33      60      13
      60      33     -30      63      11      60      63      27      75       5
      63      30      33      69      11      63      60     -33      69      11
      69      42      45      72      11      69      57     -54      72      11
       0       6      -3     -81      20       6      21      -9     -78      20
      48      75     -12     -21      21      15      27     -18     -24      20
      18      75     -27     -63      20      27      30     -63     -60      20
%FLAG EXCLUDED_ATOMS_LIST                                                       
%FORMAT(10I8)                                                                   
       2       3       4      27      28      29      53      54      55       3
       4       8      27      28      29      53      54      55       4       5
       8      27      28      29      31      53      54      55       5       8
      17      26      27      28      29      31       6       7       8      10
      17      22      26      27      30      31       7       8       9      10
      17      22      26      30      50      51      52       9      10      11
      17      21      22      26      30      50      51      52      10      17
      26      27      28      29      31      10      17      22      26      30
      50      51      52      11      12      17      21      22      26      30
      32      33      44      45      50      51      52      12      13      14
      15      20      21      22      24      26      32      33      34      35
      44      45      13      14      15      16      19      20      21      22
      23      24      32      33      34      35      36      37      42      43
      44      45      14      15      20      21      22      23      24      32
      33      34      35      44      45      21      23      24      34      35
      16      18      19      20      21      24      25      36      37      38
      39      42      43      46      18      19      20      24      25      36
      37      38      39      40      41      46      47      48      49      26
      30      31      19      20      25      38      39      40      41      46
      47      48      49      20      24      25      38      39      40      41
      42      43      46      47      48      49      21      24      25      36
      37      40      41      42      43      46      22      24      26      32
      33      34      35      44      45      24      26      32      33      44
      45      34      35      25      32      33      34      35      36      37
      38      39      40      41      42      43      44      45      36      37
      38      39      40      41      42      43      46      47      48      49
      31      28      29      31      29      53      54      55       0       0
       0      33       0      35       0      37      38      39      38      39
      39      46      46      41      42      43      46      42      43      46
      43       0      45       0      47      48      49      48      49      49
       0      51      52      52       0      54      55      55       0
%FLAG HBOND_ACOEF                                                               
%FORMAT(5E16.8)                                                                 

%FLAG HBOND_BCOEF                                                               
%FORMAT(5E16.8)                                                                 

%FLAG HBCUT                                                                     
%FORMAT(5E16.8)                                                                 

%FLAG AMBER_ATOM_TYPE                                                           
%FORMAT(20a4)                                                                   
c3  cc  cc  cd  ca  ca  ca  nu  c3  ca  cy  cy  c3  c1  c6  c6  nb  c3  c6  c6  
cy  nn  n1  n3  nx  nb  ss  nd  ha  h4  hn  h1  h1  hc  hc  h1  h1  hx  hx  hx  
hx  h1  h1  h1  h1  hn  hx  hx  hx  hc  hc  hc  hc  hc  hc  
%FLAG TREE_CHAIN_CLASSIFICATION                                                 
%FORMAT(20a4)                                                                   
BLA BLA BLA BLA BLA BLA BLA BLA BLA BLA BLA BLA BLA BLA BLA BLA BLA BLA BLA BLA 
BLA BLA BLA BLA BLA BLA BLA BLA BLA BLA BLA BLA BLA BLA BLA BLA BLA BLA BLA BLA 
BLA BLA BLA BLA BLA BLA BLA BLA BLA BLA BLA BLA BLA BLA BLA 
%FLAG JOIN_ARRAY                                                                
%FORMAT(10I8)                                                                   
       0       0       0       0       0       0       0       0       0       0
       0       0       0       0       0       0       0       0       0       0
       0       0       0       0       0       0       0       0       0       0
       0       0       0       0       0       0       0       0       0       0
       0       0       0       0       0       0       0       0       0       0
       0       0       0       0       0
%FLAG IROTAT                                                                    
%FORMAT(10I8)                                                                   
       0       0       0       0       0       0       0       0       0       0
       0       0       0       0       0       0       0       0       0       0
       0       0       0       0       0       0       0       0       0       0
       0       0       0       0       0       0       0       0       0       0
       0       0       0       0       0       0       0       0       0       0
       0       0       0       0       0
%FLAG RADIUS_SET                                                                
%FORMAT(1a80)                                                                   
modified Bondi radii (mbondi)                                                   
%FLAG RADII                                                                     
%FORMAT(5E16.8)                                                                 
  1.70000000E+00  1.70000000E+00  1.70000000E+00  1.70000000E+00  1.70000000E+00
  1.70000000E+00  1.70000000E+00  1.55000000E+00  1.70000000E+00  1.70000000E+00
  1.70000000E+00  1.70000000E+00  1.70000000E+00  1.70000000E+00  1.70000000E+00
  1.70000000E+00  1.55000000E+00  1.70000000E+00  1.70000000E+00  1.70000000E+00
  1.70000000E+00  1.55000000E+00  1.55000000E+00  1.55000000E+00  1.55000000E+00
  1.55000000E+00  1.80000000E+00  1.55000000E+00  1.30000000E+00  1.30000000E+00
  1.30000000E+00  1.30000000E+00  1.30000000E+00  1.30000000E+00  1.30000000E+00
  1.30000000E+00  1.30000000E+00  1.30000000E+00  1.30000000E+00  1.30000000E+00
  1.30000000E+00  1.30000000E+00  1.30000000E+00  1.30000000E+00  1.30000000E+00
  1.30000000E+00  1.30000000E+00  1.30000000E+00  1.30000000E+00  1.30000000E+00
  1.30000000E+00  1.30000000E+00  1.30000000E+00  1.30000000E+00  1.30000000E+00
%FLAG SCREEN                                                                    
%FORMAT(5E16.8)                                                                 
  7.20000000E-01  7.20000000E-01  7.20000000E-01  7.20000000E-01  7.20000000E-01
  7.20000000E-01  7.20000000E-01  7.90000000E-01  7.20000000E-01  7.20000000E-01
  7.20000000E-01  7.20000000E-01  7.20000000E-01  7.20000000E-01  7.20000000E-01
  7.20000000E-01  7.90000000E-01  7.20000000E-01  7.20000000E-01  7.20000000E-01
  7.20000000E-01  7.90000000E-01  7.90000000E-01  7.90000000E-01  7.90000000E-01
  7.90000000E-01  9.60000000E-01  7.90000000E-01  8.50000000E-01  8.50000000E-01
  8.50000000E-01  8.50000000E-01  8.50000000E-01  8.50000000E-01  8.50000000E-01
  8.50000000E-01  8.50000000E-01  8.50000000E-01  8.50000000E-01  8.50000000E-01
  8.50000000E-01  8.50000000E-01  8.50000000E-01  8.50000000E-01  8.50000000E-01
  8.50000000E-01  8.50000000E-01  8.50000000E-01  8.50000000E-01  8.50000000E-01
  8.50000000E-01  8.50000000E-01  8.50000000E-01  8.50000000E-01  8.50000000E-01
%FLAG IPOL                                                                      
%FORMAT(1I8)                                                                    
       0
