MOL
    55
   5.8930000  -3.6820000   0.0330000   4.8770000  -2.5860000  -0.0750000
   5.1810000  -1.2240000  -0.3260000   4.0340000  -0.4560000  -0.3660000
   2.8590000   1.6900000  -0.6560000   1.9390000   3.7180000  -1.0340000
   0.6490000   3.2260000  -0.8260000   3.9830000   0.9060000  -0.6000000
  -0.5680000   4.0830000  -1.0210000   0.5940000   1.8660000  -0.4770000
  -0.5640000  -0.1000000   0.4510000  -1.9550000   0.2190000   1.0460000
  -2.1430000  -0.0510000   2.5500000  -1.1050000   0.5950000   3.3530000
  -4.3550000   0.1460000   0.4310000  -5.2060000  -0.2220000  -0.7720000
   3.0580000   2.9850000  -0.9530000  -6.0610000  -2.1400000  -2.1150000
  -3.8470000  -2.2980000  -0.9800000  -3.0630000  -1.8340000   0.2340000
  -1.6860000   1.6850000   0.6190000  -0.6050000   1.1900000  -0.2580000
  -0.2580000   1.1470000   3.9640000  -3.0150000  -0.3790000   0.2210000
  -5.2420000  -1.7220000  -0.9330000   1.6860000   1.0910000  -0.4030000
   2.6690000  -1.4890000  -0.0860000   3.5840000  -2.8810000   0.0730000
   6.1820000  -0.8290000  -0.4680000   2.0810000   4.7660000  -1.2960000
   4.8550000   1.3940000  -0.7850000   0.2250000  -0.1410000   1.2120000
  -0.4630000  -0.9700000  -0.2050000  -3.1200000   0.3150000   2.8890000
  -2.1130000  -1.1300000   2.7470000  -4.3280000   1.2370000   0.4990000
  -4.8380000  -0.2270000   1.3550000  -6.2410000   0.1170000  -0.6720000
  -4.7690000   0.1800000  -1.6890000  -3.9470000  -3.3860000  -1.0220000
  -3.3860000  -1.9310000  -1.8990000  -2.0540000  -2.2460000   0.1560000
  -3.5180000  -2.2510000   1.1530000  -2.4910000   2.2130000   0.0990000
  -1.3250000   2.2980000   1.4550000  -5.6940000  -2.1030000  -0.0890000
  -7.0680000  -1.7370000  -2.0060000  -5.5890000  -1.7420000  -3.0130000
  -6.0910000  -3.2290000  -2.1550000  -0.2860000   5.0290000  -1.4900000
  -1.2910000   3.5850000  -1.6770000  -1.0710000   4.3220000  -0.0780000
   6.4740000  -3.7720000  -0.8910000   6.5940000  -3.4890000   0.8510000
   5.3860000  -4.6300000   0.2220000
